/*--------------------------------*- C++ -*----------------------------------*\
| =========                 |                                                 |
| \\      /  F ield         | OpenFOAM: The Open Source CFD Toolbox           |
|  \\    /   O peration     | Version:  5.0                                   |
|   \\  /    A nd           | Web:      www.OpenFOAM.org                      |
|    \\/     M anipulation  |                                                 |
\*---------------------------------------------------------------------------*/
FoamFile
{
    version     2.0;
    format      ascii;
    class       volVectorField;
    location    "0/core";
    object      C;
}
// * * * * * * * * * * * * * * * * * * * * * * * * * * * * * * * * * * * * * //

dimensions      [0 1 0 0 0 0 0];

internalField   nonuniform List<vector> 
618
(
(0.0266477698027 0.0345595228 0)
(0.0266756715098 -0.0345512060857 0)
(0.0242794015003 -0.0357409521624 0)
(0.0242873464618 0.0357226964108 0)
(0.02672522057 0.0357157555992 -9.53143947215e-23)
(0.0267469951832 -0.0357057244588 -9.96813294499e-22)
(0.0254491502295 -0.0363856488896 -2.70265426728e-21)
(0.0254591914667 0.0363777433799 1.62128823422e-21)
(0.00568840163448 -0.0385442494515 0)
(0.00568840163448 0.0385442494515 0)
(0.0232745306342 0.0360508954618 -5.98483846567e-21)
(0.0232639147231 -0.0360911381612 0)
(0.000939647711835 0.0385603165079 0)
(0.00145517610971 -0.0393025424937 0)
(0.00145517610971 0.0393025424937 0)
(0.000939647711835 -0.0385603165079 0)
(0.0293819861805 -0.0387129008551 0)
(0.0287159995699 -0.0393796390304 0)
(0.0287159995699 0.0393796390304 0)
(0.0293819861805 0.0387129008551 0)
(0.0103338936067 -0.0374151683173 0)
(0.0103338936067 0.0374151683173 0)
(0.0237711020336 0.0337037649915 0)
(0.0237740966482 -0.0337036692233 -9.7617821306e-21)
(0.0228617869944 0.0336573146586 -1.01706585797e-22)
(0.022866948328 -0.0336694531646 3.05168345843e-22)
(0.0254848685818 0.0374380882476 8.21239488572e-21)
(0.0254772303923 -0.0374592314631 1.05652382216e-22)
(0.00284288069859 0.0304207350922 0)
(0.0049357417942 0.0323005668312 0)
(0.00493578104465 -0.0323006157496 -3.65712968198e-21)
(0.00352245578555 0.0297503795172 0)
(0.00284681702907 -0.0304306460249 0)
(0.00750190051529 -0.0375671018377 -1.31569872671e-21)
(0.00750190051529 0.0375671018377 -7.89419236014e-21)
(0.00368463631979 0.00163048478148 2.09310674957e-21)
(0.00371228962957 0.00265539787185 -1.78875235082e-21)
(0.00153724158939 0.00271358826505 0)
(0.00352218221124 -0.0297499733288 0)
(0.00727583893927 -0.0367556764761 2.20128520223e-23)
(0.00727583893926 0.0367556764761 1.89574620776e-21)
(0.0242924344998 0.039031154892 0)
(0.0242948911403 -0.0390444083254 0)
(0.00534828482111 0.0315188194394 0)
(0.00534832267928 -0.0315188693549 1.09799230538e-21)
(0.00098717058675 0.0349228991337 0)
(0.000987170586745 -0.0349228991338 0)
(0.0174147353355 0.0339742556936 -4.12771535906e-21)
(0.0174793771727 -0.03397274267 0)
(0.0117076618674 -0.03396918462 1.69625354792e-21)
(0.0117088790681 0.0339673577696 0)
(0.0174318141094 0.0331132460901 -1.06721370572e-22)
(0.017493371622 -0.0331124687458 -7.11017605727e-21)
(0.00667746933527 -0.0386592372328 -2.62729334516e-23)
(0.00667746933528 0.0386592372328 -2.46317714893e-23)
(0.00593069916678 -0.0338919046448 -7.69761955766e-22)
(0.0059243591131 0.0338929632423 0)
(0.0117300224501 -0.033110652826 -2.31633474165e-21)
(0.011730503131 0.0331092370434 4.79441834052e-21)
(0.00593257436495 -0.0330576403972 1.65457044952e-22)
(0.00592623539966 0.0330584905663 -3.56063865934e-22)
(0.00938170039012 -0.0371553746437 -8.53576645844e-21)
(0.00938170039012 0.0371553746437 0)
(0.00153110626337 0.00164713415901 0)
(0.0105661164556 -0.0382687282551 0)
(0.0105661164556 0.0382687282551 4.47323907472e-23)
(0.025150601634 -0.0395014022199 -1.10438311013e-22)
(0.0251481877381 0.0394882761293 -7.95659992453e-21)
(0.003126375911 0.0354879177275 0)
(0.00312637591099 -0.0354879177275 0)
(0.000899022711185 0.0310312799772 0)
(0.0173026716971 0.0359543641642 1.05276377198e-20)
(0.0173062158623 -0.0359544207127 0)
(0.000899022711185 -0.0310312799772 0)
(0.0115280729389 0.0359330859166 -3.17732369359e-21)
(0.0115204005413 -0.0359372840552 1.59747856983e-21)
(0.0161541631863 -0.037422453171 0)
(0.0161600969597 0.0374189717563 0)
(0.0293375456899 0.0350195429257 0)
(0.0293583298445 -0.0350098780138 0)
(0.0171812199172 0.0368144895919 1.51477520968e-21)
(0.0171816955176 -0.0368145774946 6.16918112099e-21)
(0.00109256448359 0.030091181544 0)
(0.0114090905631 0.0367834287496 5.7472398768e-24)
(0.0114021223965 -0.0367873268914 -9.42308120044e-24)
(0.0251561912174 0.030593377479 9.06957681767e-22)
(0.0251592946686 -0.0305866329161 1.63720631437e-20)
(0.00489801165795 0.0393932718686 0)
(0.00489801165793 -0.0393932718686 -8.05910294092e-25)
(0.00109256448359 -0.030091181544 0)
(0.0120270981142 -0.0390556100179 0)
(0.0120244850403 0.0390476842364 0)
(0.0018317926834 0.0296890056731 7.97811720034e-22)
(0.0243568164273 0.0380484890508 -3.52888424372e-21)
(0.024349006615 -0.03806992469 1.94650840843e-21)
(0.0130254469815 -0.0394150740044 4.45031517591e-22)
(0.013022938011 0.0394073256981 -4.91377790905e-23)
(0.00268087079632 0.0276592086096 0)
(0.00308905976473 -0.0342112266624 6.99722345186e-22)
(0.00308905976474 0.0342112266624 -5.8819430846e-22)
(0.00133891832351 0.0357287090049 0)
(0.00133891832351 -0.0357287090049 0)
(0.00268087079632 0.0263428638337 0)
(0.00183672370435 -0.029700337263 7.90760641252e-22)
(0.000924964778835 0.027 0)
(0.002417944307 -0.00367609898813 0)
(0.00241794430706 -0.00767609898816 0)
(0.00262568168202 0.00768091804173 0)
(0.00241794430706 -0.0116760989882 0)
(0.00268046585787 0.0116581934145 0)
(0.00241794430706 -0.0156760989881 0)
(0.00268046585787 0.0156581934145 0)
(0.00241794430705 -0.0196760989881 -1.40325059603e-21)
(0.00268046585787 0.0196581934145 0)
(0.00241794430705 -0.0236760989881 0)
(0.00268046585788 0.0236581934145 4.20189813877e-22)
(0.00242248686164 -0.027688375791 0)
(0.00241794430698 -0.0023239010118 3.89861398666e-24)
(0.00241825790795 -0.0263248473978 3.90103630226e-24)
(0.00268046585788 0.0223418065855 8.40379627754e-22)
(0.00241794430705 -0.0223239010119 5.00985802796e-22)
(0.00241794430706 -0.0183239010119 -3.89861398663e-24)
(0.00268046585787 0.0183418065856 1.52613717554e-22)
(0.00268046585787 0.0143418065856 1.52613717554e-22)
(0.00241794430706 -0.0143239010119 -3.89861398663e-24)
(0.00241794430706 -0.0103239010119 -3.89861398663e-24)
(0.00268046585787 0.0103418065856 1.52613717554e-22)
(0.00241794430706 -0.0063239010119 -3.89861398663e-24)
(0.00264121946162 0.00641305514933 -2.00136396389e-21)
(0.00442654247099 -0.00300000000004 0)
(0.00442654247102 -0.027 9.29004116265e-22)
(0.00092496477883 0.023 0)
(0.00442654247103 -0.0110000000001 0)
(0.00442654247103 -0.023 0)
(0.00442654247103 -0.019 0)
(0.00092496477883 0.019 0)
(0.00442654247103 -0.015 0)
(0.00092496477883 0.0150000000001 0)
(0.00442654247103 -0.00700000000006 0)
(0.00082284134596 0.00701643205179 0)
(0.00092496477883 0.0110000000001 0)
(0.0228989659861 0.0370570147202 -1.01385392232e-20)
(0.022889836235 -0.0371021800539 0)
(0.0117993792185 -0.038228742384 4.06166473689e-22)
(0.0117967401431 0.03822073258 -7.42205010511e-22)
(0.00397694967242 0.0324903910426 0)
(0.00397699319735 -0.0324904415633 -3.19863666282e-22)
(0.00414802276519 0.0359842643832 0)
(0.00414802276519 -0.0359842643832 0)
(0.0152647010424 -0.037117220104 5.18540207873e-21)
(0.0152750029741 0.0371095674447 0)
(0.00451049419103 0.00322896647033 -1.0504271839e-23)
(0.000779136998385 0.00336458333341 0)
(0.0189693766581 -0.0394277457449 0)
(0.0189692825083 0.0394276784972 1.16992098265e-20)
(0.00221785121089 -0.0335949456188 -1.27574325814e-22)
(0.00223673544558 0.0335974988816 9.22734876381e-22)
(0.024189779083 0.030977788411 -1.01634770059e-21)
(0.0241999032532 -0.0309723197885 6.78782042257e-21)
(0.00128066632268 -0.0339759917908 6.56627982697e-23)
(0.001304053351 0.0339752307429 7.21158959125e-23)
(0.00336617915175 0.0283340497479 0)
(0.00448502407202 0.0008768021657 0)
(0.0021831363036 0.032376040657 -1.79869848932e-23)
(0.0164567985591 -0.0382841156002 8.93251677658e-21)
(0.016462678903 0.0382805675737 -2.90602598782e-21)
(0.0244590479251 0.034585647241 0)
(0.0244602778489 -0.0345850957253 -9.10087685387e-22)
(0.00216410864266 -0.0323704411655 0)
(0.0238792682403 0.0318563585684 9.74447615869e-23)
(0.0238912006611 -0.0318512629124 -1.0502083311e-22)
(0.00847258451039 -0.03787205821 2.23099561918e-21)
(0.0084725845104 0.03787205821 3.10897108046e-21)
(0.00123295025726 0.0319999226326 4.96211847522e-23)
(0.00336219266411 0.0256785580601 0)
(0.00172216789386 -0.00435512213193 -4.57929175476e-22)
(0.00172216789387 -0.00835512213194 3.42697895825e-22)
(0.00336249683402 0.00833035238937 -9.66922422581e-24)
(0.00172216789387 -0.0123551221319 3.89795222748e-22)
(0.00336183403268 0.0123224445532 0)
(0.00172216789387 -0.0163551221319 0)
(0.00336183403268 0.0163224445532 -1.87095771178e-22)
(0.00172216789386 -0.0203551221319 -1.54028064006e-22)
(0.00336183403268 0.0203224445532 0)
(0.00172216789386 -0.0243551221319 -1.54028064006e-22)
(0.00336183403269 0.0243224445532 0)
(0.00172763876259 -0.028368382171 5.31154081067e-22)
(0.00172216789382 -0.00164487786796 -9.10384492313e-23)
(0.00172252822795 -0.0256459449946 2.53100972131e-23)
(0.00336183403269 0.0216775554468 5.79820131165e-22)
(0.00172216789386 -0.021644877868 -8.91859716672e-22)
(0.00336183403268 0.0176775554468 1.52108111103e-22)
(0.00172216789387 -0.017644877868 4.59201257497e-22)
(0.00336183403268 0.0136775554468 1.52108111103e-22)
(0.00172216789387 -0.013644877868 -3.20389187943e-22)
(0.00336183403268 0.00967755544682 -1.0090568056e-23)
(0.00172216789387 -0.00964487786805 -3.70232165261e-22)
(0.00172216789387 -0.00564487786803 5.44755272008e-24)
(0.00120865071248 -0.0319893218228 0)
(0.00251995906336 8.1837537709e-05 5.1764818532e-22)
(0.0260985877919 0.0321666554473 0)
(0.0261077970445 -0.0321615615314 6.05258915249e-21)
(0.019378304381 0.0305605862174 -4.43142748297e-21)
(0.019378304381 -0.0305605862174 1.17726687817e-21)
(0.0214009441194 -0.030570603561 9.57248639783e-23)
(0.0214003539399 0.0305750199873 1.04757535603e-22)
(0.0136124675298 0.0305599260408 -4.19066015673e-22)
(0.0136124675298 -0.0305599260408 4.19066015672e-22)
(0.0156335229166 -0.0305619258153 0)
(0.0156335229165 0.0305619258153 1.54581125716e-21)
(0.00785162421704 0.0305592733422 -1.18843630366e-21)
(0.00784936221385 -0.0305593432548 2.21608935033e-23)
(0.00987016016673 0.0305617031228 -5.49568736779e-23)
(0.00987449097427 -0.0305621738276 0)
(0.0087262527605 -0.0355395919707 0)
(0.00868352223618 0.0355389131863 0)
(0.00501967679383 0.030710447998 0)
(0.00433413533089 0.0300567754075 -1.02809733445e-21)
(0.00501971575638 -0.0307105003695 1.49819151839e-21)
(0.0203896376177 0.0311358671696 -2.07455078523e-22)
(0.0203902424186 -0.0311313918992 -1.1150230559e-21)
(0.0146238763598 0.0311220347338 0)
(0.0146238763599 -0.0311220347338 8.01102606704e-22)
(0.0270993768634 0.0322142242135 6.57086228863e-21)
(0.0271061147371 -0.0322160157865 -1.84782663518e-20)
(0.00886363803277 0.0311214085611 -5.87875343197e-22)
(0.0088660815511 -0.0311219472913 -3.33240694566e-22)
(0.00336321416091 0.00579222377119 -1.00245641962e-22)
(0.000790826417175 0.0367456655657 0)
(0.00079082641717 -0.0367456655657 0)
(0.00433066703614 -0.0300472545729 -3.24119754666e-23)
(0.0276939855412 0.0339745601904 0)
(0.0277307157608 -0.0339077163362 0)
(0.00184877219433 0.0283287037037 -1.60248865077e-22)
(0.0203909910324 0.0322436925508 0)
(0.0203915958127 -0.0322392093513 9.68125326348e-22)
(0.0288632998326 0.0324842063935 0)
(0.0288731439027 -0.0324263387194 0)
(0.0216193066173 0.0388026983215 -3.6447005613e-21)
(0.0216240665878 -0.0388200304247 0)
(0.0146247179493 -0.0322286190351 0)
(0.0146247179492 0.0322286190351 0)
(0.00885921585405 -0.032239441494 0)
(0.00886397329837 0.0322273770163 4.39088903961e-23)
(0.00690423885727 0.032503342139 2.34088226705e-21)
(0.00690768282678 -0.0325028624505 0)
(0.0145240138885 0.0355225952397 0)
(0.0145284414448 -0.0355323927528 0)
(0.00230904694022 0.0360696433941 5.03694992417e-24)
(0.00230904694022 -0.0360696433941 1.02857194379e-22)
(0.00174961201868 -0.000463019582979 2.05500994054e-22)
(0.00303510253729 0.031741347505 -2.40486982267e-22)
(0.0243619532035 0.0326857077964 -1.00367072022e-21)
(0.024365736764 -0.0326683862884 1.17835741688e-21)
(0.0255478264904 0.03408363588 1.03925724316e-21)
(0.0255529840927 -0.0340743900359 1.21932679644e-24)
(0.00111504374783 0.0279310344828 0)
(0.012662081647 0.0325122986778 6.4261850839e-22)
(0.0126619994723 -0.0325123435313 4.7001331191e-23)
(0.00406875002724 -0.0280165289256 -6.44068043272e-22)
(0.00323105801818 -0.0283462344233 4.78204553224e-23)
(0.0216502286118 0.0369522953236 -1.25504640296e-21)
(0.0216526920191 -0.036990502575 0)
(0.00303515267297 -0.031741404006 -6.74286728963e-23)
(0.0088491603689 -0.0344220874646 -6.15853228205e-21)
(0.00881396849439 0.0344080869857 -6.76463045031e-22)
(0.0254547755064 0.0329188338579 8.2479693028e-26)
(0.0254630276875 -0.0329028408794 1.7636130763e-21)
(0.0145946434175 -0.0344305656573 -1.13639908139e-20)
(0.0145859285515 0.0344246842754 8.11118061599e-21)
(0.00111504374783 0.0260689655172 0)
(0.00184877219433 0.0256712962963 0)
(0.0203881642379 0.0344271895281 3.80382993657e-21)
(0.0203870434767 -0.0344293255538 2.62948463485e-20)
(0.02226065879 0.0326213142248 0)
(0.0222640318693 -0.0326185701535 9.86425024718e-23)
(0.0204089302766 0.0355619392813 0)
(0.0204088019425 -0.0355648289315 -7.53413218041e-21)
(0.018429601794 0.0325148712437 -4.87523462768e-21)
(0.0184294971135 -0.0325148639551 9.06848190286e-22)
(0.00406875002722 -0.00401652892566 -1.28813608647e-21)
(0.00322735106599 -0.00433593750004 0)
(0.00406875002724 -0.0259834710744 6.34272211773e-22)
(0.00406875002725 -0.0219834710744 0)
(0.00111504374783 0.0239310344828 0)
(0.00111504374782 0.0220689655172 0)
(0.00406875002725 -0.0179834710744 0)
(0.00406875002725 -0.0200165289256 0)
(0.00406875002725 -0.0120165289257 0)
(0.00406875002725 -0.00998347107447 1.61609860764e-22)
(0.00406875002725 -0.0240165289256 0)
(0.00406875002725 -0.0139834710744 1.61609860764e-22)
(0.00322735106602 -0.0216640625 -3.02655377651e-22)
(0.00111504374782 0.0180689655173 0)
(0.00111504374782 0.0140689655173 0)
(0.00111504374782 0.0199310344828 0)
(0.00111504374782 0.0100689655173 0)
(0.00322735106602 -0.0203359375 -2.56005352779e-23)
(0.00406875002725 -0.0160165289256 0)
(0.00111504374782 0.0159310344829 0)
(0.00406875002725 -0.00598347107445 0)
(0.00322735106602 -0.0243359375 2.20232256442e-22)
(0.00406875002725 -0.00801652892568 0)
(0.00111504374782 0.0119310344829 0)
(0.00102732245864 0.0079579832202 0)
(0.00322735106603 -0.0163359375 0)
(0.00322735106603 -0.0123359375 0)
(0.00322735106603 -0.0176640625 0)
(0.00184877219432 0.0216712962963 8.83575873311e-23)
(0.00322735106602 -0.0256640625 -1.6564992201e-22)
(0.00184877219432 0.0203287037037 -4.40002856289e-22)
(0.00184877219433 0.0243287037037 -5.39645126523e-23)
(0.00184877219432 0.0123287037038 -5.47230300856e-23)
(0.00322735106603 -0.00966406250007 -1.02183615094e-22)
(0.00322735106603 -0.0136640625 0)
(0.00184877219432 0.00967129629638 -1.22432764018e-21)
(0.00184877219432 0.0136712962964 1.24537874134e-22)
(0.00184877219432 0.0176712962964 0)
(0.00322735106603 -0.00833593750006 -2.00690010137e-23)
(0.00184877219432 0.0163287037038 -7.92054801933e-23)
(0.00322735106603 -0.00566406250007 1.15779337908e-23)
(0.00178296538996 0.00835244411325 3.74881258947e-22)
(0.0040687500272 -0.00198347107442 -9.79583149887e-24)
(0.00322735106596 -0.00166406249998 6.30331269217e-22)
(0.0179688281726 -0.0390834250223 0)
(0.0179687314053 0.0390833564354 -5.22336237917e-22)
(0.0165635402011 -0.0325168487887 -9.89817973759e-23)
(0.016500190217 0.0325170476888 2.603376951e-21)
(0.0176661427849 -0.0382691174181 -2.0649257166e-22)
(0.0176660451739 0.0382690474591 5.29410471707e-21)
(0.00130105526576 0.0374970016116 0)
(0.00130105526576 -0.0374970016116 0)
(0.0108051849609 -0.0325154868243 2.15730445873e-21)
(0.0108014523907 0.0325138396417 -5.3929421899e-23)
(0.0295039990934 0.0331728982896 0)
(0.029513075396 -0.0331151189686 -2.17635154887e-22)
(0.0226866638137 0.0318380963022 1.01908896661e-21)
(0.0226962107189 -0.0318355354015 1.01564228832e-21)
(0.0169160182454 -0.0316917047398 6.80891335108e-22)
(0.0169160182454 0.0316917047398 6.80891335075e-22)
(0.0180978652938 0.0316918302034 1.12835338516e-22)
(0.0180978652938 -0.0316918302034 -1.02487611273e-22)
(0.0111563317681 -0.0316889276342 5.21547976552e-22)
(0.0111522510192 0.0316885898691 -4.89937065011e-21)
(0.012333102926 -0.0316890583664 -5.02781800791e-23)
(0.0123331029259 0.0316890583664 0)
(0.00657372754963 -0.0316883630367 0)
(0.00657620660767 0.0316882029849 0)
(0.0277206902439 0.032929607549 -2.77423825667e-21)
(0.0277367146604 -0.0328726831951 -2.10777860358e-21)
(0.0276009699162 0.031102803224 -2.99337551158e-22)
(0.0276016541857 -0.0311029826769 1.33153550719e-20)
(0.0211105047645 -0.0377307375664 0)
(0.0211047110717 0.0377125336616 2.14623664564e-22)
(0.0225357309647 0.0388288290679 3.77000527111e-21)
(0.0225397382511 -0.0388439002636 0)
(0.0192300335597 0.0371658567466 0)
(0.0192315987851 -0.0371667378939 0)
(0.0273152852695 0.0379761173542 0)
(0.0272858685398 -0.0379086966182 -7.12131922448e-21)
(0.00106048798684 0.00610786787549 0)
(0.00182918312293 0.00577392728288 1.91032584551e-22)
(0.0050576079414 -0.0353557407862 0)
(0.0050576079414 0.0353557407862 0)
(0.0295036672606 -0.0368579299572 0)
(0.0295036672606 0.0368579299572 0)
(0.00786607225714 0.0328213955074 1.16122677775e-21)
(0.007861652393 -0.0328329384788 -4.25811850823e-21)
(0.0133424157052 -0.0371113340386 0)
(0.0133508695772 0.0370954406355 0)
(0.0288371272035 0.0341920272005 6.57550264626e-21)
(0.0288672637605 -0.0341243000164 2.59544614243e-21)
(0.0209011040437 0.0395161536658 4.17113150369e-21)
(0.0209017837956 -0.0395182690435 1.12223212769e-22)
(0.0264158319804 0.0380870153262 7.13117298301e-22)
(0.0263882749234 -0.0380320516205 -6.09852224292e-21)
(0.0136251415802 0.0328272945186 -1.34749154175e-21)
(0.0136250623206 -0.0328273391505 0)
(0.0277910004404 -0.0361326487319 -6.6794430689e-21)
(0.0277696422761 0.0361426589002 0)
(0.014260244589 0.037716874386 9.34070077206e-22)
(0.0142519833653 -0.0377324270865 8.50026425358e-22)
(0.0193930904339 0.0328284937853 0)
(0.0193929883611 -0.0328284870716 0)
(0.0141122837192 -0.0388575880067 4.6931701399e-22)
(0.0141162217833 0.0388462122847 -4.91530662434e-23)
(0.0212910343845 0.0328457984917 1.29118626445e-20)
(0.0212926365066 -0.0328425365199 -1.0928276828e-22)
(0.00493944192999 -0.0343442030672 2.92503849429e-22)
(0.00493944192998 0.0343442030672 5.73577538842e-23)
(0.00721970174013 0.0395034168755 -4.50567123905e-23)
(0.00721970174009 -0.0395034168755 -5.975953581e-23)
(0.0184158621584 0.0308976226705 8.24933836469e-21)
(0.0184158621584 -0.0308976226705 -5.99601701281e-21)
(0.0156038950635 -0.0328238473082 -8.04518789925e-21)
(0.0155386011503 0.0328243129641 1.56209403603e-21)
(0.0126498463115 0.0308975026415 -1.96854551281e-21)
(0.0126498463115 -0.0308975026415 -1.05854510461e-22)
(0.0223560084554 0.0309548826566 0)
(0.0223638249383 -0.0309518957606 1.11297059971e-21)
(0.0135503461987 -0.036032665036 4.75086351699e-22)
(0.0135428268145 0.0360169551241 4.12063204051e-22)
(0.00688680468247 -0.0309003566492 -9.0854825488e-22)
(0.00688922382074 0.0309002625661 0)
(0.0165930789741 -0.0308922153311 7.35906340588e-22)
(0.016593078974 0.0308922153311 5.86448099953e-21)
(0.0108281688291 0.030889145862 -5.6362796847e-22)
(0.0108323079573 -0.0308895669156 2.86468484091e-21)
(0.0181052352286 0.0374430707908 -3.85258582603e-21)
(0.018105794744 -0.0374432241446 3.72017021919e-22)
(0.0150958085093 -0.0394411051525 1.61608723396e-21)
(0.0151019438204 0.0394373650379 7.73215726792e-22)
(0.0288577524602 -0.0358683570323 -1.11611694083e-21)
(0.0288367916122 0.0358782215903 -2.16644129764e-21)
(0.00983953077465 -0.0328332127535 -5.68950742504e-23)
(0.00984247109068 0.0328201385476 -2.28611481948e-21)
(0.00774620210583 -0.0359217473571 1.92031334124e-21)
(0.00774635674559 0.035920525837 0)
(0.0269634082975 0.0304580805489 8.9744647748e-22)
(0.0269634082976 -0.0304580805489 2.40733459275e-22)
(0.0222063742762 0.0344313249686 -7.7731181529e-21)
(0.0222124699488 -0.0344452411356 1.04739604082e-22)
(0.0184718939808 0.0344806989463 -6.55284431058e-22)
(0.0184706607151 -0.0344806329056 4.30169703149e-21)
(0.019414499751 0.0360723803466 4.10794060268e-21)
(0.0194119647506 -0.0360732061464 2.42283394002e-21)
(0.0164116594198 0.0344745206524 2.41433568469e-21)
(0.0164698558142 -0.0344701727451 1.05505624131e-22)
(0.0107358448368 -0.0344654362411 -1.46995749371e-21)
(0.0106984016445 0.0344629917378 3.97747623495e-21)
(0.0213664241039 0.0359842398699 4.52155841663e-21)
(0.0213675062831 -0.0360093431189 -1.0728703428e-22)
(0.0126986840881 -0.0344814308499 -3.15172992464e-21)
(0.0126804805474 0.0344724287207 -1.63886547888e-21)
(0.00695192299023 -0.034428262502 1.58215039156e-22)
(0.00694624615261 0.0344281256997 0)
(0.0288816097629 -0.0375678079746 1.16409097862e-20)
(0.0288816097629 0.0375678079746 -9.92138408199e-21)
(0.0184131368445 0.0354859724277 -4.41439713293e-22)
(0.0184124652636 -0.0354860184228 -4.40596927587e-21)
(0.0200141437213 -0.0378515707548 -8.20412806235e-21)
(0.0200123555326 0.037848637681 -1.01384461667e-22)
(0.0106109819439 -0.0354344180087 0)
(0.0105729148289 0.0354342804509 4.88865613346e-23)
(0.0163533640452 -0.0354449468124 -1.25547277553e-20)
(0.016358701878 0.0354471269916 -4.69022975203e-21)
(0.00913111525441 -0.0394538308391 -5.53194926935e-23)
(0.00913111525445 0.0394538308391 -2.03067765204e-21)
(0.0232700577407 0.0378433243761 -2.38974833898e-21)
(0.023263500445 -0.037866564781 1.21976038342e-21)
(0.00076927222696 0.000824625083188 0)
(0.000739751123905 0.033 0)
(0.000704659415265 -0.032993349465 0)
(0.0123087175482 0.037397520997 3.42545793639e-24)
(0.0123045971961 -0.0374093842392 4.61589855373e-21)
(0.0126224491527 0.03546506745 7.18070010045e-23)
(0.0126341648957 -0.0354773071548 5.10958399625e-21)
(0.0231507673106 -0.0395419911551 0)
(0.0231507673106 0.0395419911551 -3.80215034214e-21)
(0.00538980580869 -0.0373283386349 0)
(0.00538980580868 0.0373283386349 -1.08003398579e-21)
(0.00433685315688 -0.0371048616195 1.50955627857e-22)
(0.00433685315688 0.0371048616195 -2.08292020047e-22)
(0.0259585902218 0.0310512578487 1.16495734948e-21)
(0.0259616459131 -0.0310445509898 -2.79939280511e-20)
(0.00454317402972 0.0270009022464 0)
(0.000724112638605 -0.00699999999994 0)
(0.000724112638605 -0.0149999999999 0)
(0.000724112638605 -0.011 0)
(0.000724112638605 -0.023 0)
(0.00454343756833 0.00700742319657 0)
(0.000724112638605 -0.019 0)
(0.00454286330734 0.015 0)
(0.00454286330734 0.0109999999999 0)
(0.00454286330735 0.023 0)
(0.00454286330734 0.019 0)
(0.00072471247444 -0.0270015224258 0)
(0.000724112638585 -0.00299999999992 0)
(0.0283967841729 0.0309779648879 -1.99162129141e-22)
(0.0283974588003 -0.0309781436792 1.42754044567e-20)
(0.00370221169758 -0.0379019238989 -2.20163948685e-22)
(0.00370221169758 0.0379019238989 -2.15570275137e-23)
(0.0160983685902 0.0391004296916 -3.18898849225e-21)
(0.0160924236173 -0.0391040751132 1.1251025463e-22)
(0.0198609839269 0.0389439719242 5.43597741441e-22)
(0.019861773453 -0.0389461864605 -2.30431258161e-22)
(0.0101236387764 -0.0391050454937 -6.54324655559e-22)
(0.0101236387765 0.0391050454938 3.81867167795e-22)
(0.00251081444082 0.00117910330506 -3.63804450738e-22)
(0.00790469415316 -0.0339178251362 4.04327067479e-21)
(0.00790699893891 0.0339052818701 -2.64802458417e-21)
(0.0136811192592 -0.0339331995981 8.66250401495e-22)
(0.013662911088 0.0339245891376 -1.0562331053e-21)
(0.00419335292931 0.028018955819 -2.17196888774e-23)
(0.00280771387275 0.0378733860533 4.27150084625e-22)
(0.00280771387275 -0.0378733860533 -4.54757398365e-22)
(0.0290412983152 0.0316447602902 0)
(0.0290419654572 -0.0316449341108 -4.20658572127e-22)
(0.000982216815885 -9.2618855745e-05 9.70354039508e-23)
(0.0194504797316 0.0339310017355 -5.88547440446e-22)
(0.0194463814722 -0.0339308821213 1.87790841581e-23)
(0.00600720813708 -0.0357764223148 -2.01882449602e-22)
(0.00600720813707 0.0357764223148 1.05707169949e-21)
(0.00615604816743 -0.036645105089 9.85928535563e-22)
(0.00615604816742 0.036645105089 -5.43613341417e-23)
(0.021233412093 0.033928143013 -2.24543385981e-22)
(0.0212371507756 -0.0339315217541 2.95592992968e-22)
(0.0155222566144 -0.0339199980948 1.6968167219e-20)
(0.0154655237591 0.0339240003286 1.16988104862e-21)
(0.00418979060916 0.0259929751438 -1.43878449336e-21)
(0.000944756007928 -0.00603985545606 9.15808880023e-24)
(0.000944756007924 -0.0140398554561 8.4718070632e-23)
(0.000944756007924 -0.0100398554561 0)
(0.000944756007924 -0.0180398554561 0)
(0.00418946820743 0.0139920354872 0)
(0.000944756007924 -0.0079601445438 -8.47180706377e-23)
(0.000944756007924 -0.0159601445438 0)
(0.00418946820743 0.0160079645128 -1.77423216425e-22)
(0.00418946820743 0.0120079645128 0)
(0.00419006405325 0.00801547715002 1.79454217175e-22)
(0.000944756007924 -0.0220398554561 0)
(0.00418946820743 0.00999203548714 -1.7742321642e-22)
(0.000944756007924 -0.0119601445438 0)
(0.00418946820743 0.0179920354872 1.77423216425e-22)
(0.00418946820744 0.0240079645128 -2.18790643497e-22)
(0.00418946820743 0.0219920354872 -2.12906622488e-21)
(0.00418946820743 0.0200079645128 -1.77423216425e-22)
(0.000945249937862 -0.0279612463272 7.815652891e-23)
(0.000944756007924 -0.0199601445438 0)
(0.000944756007921 -0.0239601445439 -6.63959346941e-24)
(0.000945249937862 -0.0260411589727 -9.16140895178e-24)
(0.000944756007898 -0.00203985545605 9.15808880029e-24)
(0.000944756007911 -0.00396014454379 6.63959346957e-24)
(0.0097913992565 -0.0339302328041 1.12683594122e-22)
(0.00975830009677 0.0339159251376 4.69285946408e-21)
(0.00313009705999 -0.0395742074165 -7.98518683371e-23)
(0.00313009706 0.0395742074165 -5.30777157171e-22)
(0.00950177739667 0.0360174718742 4.11240841737e-23)
(0.00954271144721 -0.0360165175255 -8.41787119025e-22)
(0.00466638533068 0.0290096355429 0)
(0.0296800876404 -0.031 0)
(0.0296800876404 0.031 0)
(0.0223165738692 0.0353544166802 3.98600095764e-21)
(0.0223191189025 -0.035389091105 2.53523601444e-21)
(0.00466299448371 -0.029 5.52208685971e-23)
(0.00412944811501 -0.000137414756044 0)
(0.00329501898398 -0.000461094839121 -1.31063414497e-22)
(0.0153506854482 0.0359945116219 1.05566248018e-20)
(0.01533772386 -0.0359964665274 1.01080968088e-20)
(0.00228035525903 -0.0371236160276 -3.08243154141e-22)
(0.00228035525903 0.0371236160276 1.17127030153e-21)
(0.0278153096025 -0.0371685288396 -1.0381848198e-21)
(0.0278153096025 0.0371685288396 1.0381848198e-21)
(0.00417820329701 0.00604869823917 -1.90038221061e-22)
(0.00398334227751 -0.0337176598743 -1.15312898208e-23)
(0.00398334227751 0.0337176598743 -1.11165149566e-23)
(0.00052498000961 0.029 0)
(0.0110147320919 -0.0396452475425 -5.60081336772e-21)
(0.0110147320919 0.0396452475425 1.0771801734e-22)
(0.00465170489464 0.00504714973453 0)
(0.00057671464306 0.00507203080417 0)
(0.0170091562404 -0.0396590582449 -8.60569016704e-21)
(0.0170091562404 0.0396590582449 -6.61355039423e-21)
(0.0005249800096 -0.000999999999903 0)
(0.0046629944837 0.013 0)
(0.00052498000961 -0.029 0)
(0.0046629944837 0.017 2.32513995352e-22)
(0.000524980009615 -0.0169999999999 0)
(0.000524980009615 -0.00899999999992 0)
(0.0046629944837 0.00899999999994 0)
(0.00466299448371 0.025 5.52208685971e-23)
(0.0046629944837 0.021 0)
(0.00052498000962 -0.00499999999991 0)
(0.0046629944837 -0.00100000000008 1.5429491475e-21)
(0.000524980009615 -0.0129999999999 0)
(0.000524980009615 -0.0209999999999 0)
(0.00466299448371 -0.025 5.52208685971e-23)
(0.00052498000961 -0.025 0)
(0.000524980009605 0.00900000000008 0)
(0.00466299448371 -0.021 0)
(0.000524980009605 0.021 0)
(0.00466299448371 -0.017 0)
(0.000524980009605 0.0130000000001 0)
(0.00052498000961 0.025 0)
(0.000524980009605 0.0170000000001 0)
(0.00466299448371 -0.013 0)
(0.00466299448371 -0.00900000000007 2.3251399535e-22)
(0.00466299448371 -0.00500000000007 0)
(0.0270073256764 0.0396638172484 2.2733587463e-20)
(0.0269777437686 -0.0395966637669 0)
(0.00240716005915 -0.0389471574529 2.01744747498e-21)
(0.00240716005916 0.0389471574529 1.22247854614e-22)
(0.0232705488679 0.0303821345569 1.10348890885e-21)
(0.0232776427182 -0.0303835478624 -1.1032925702e-21)
(0.0175081386156 0.0303338695797 -2.33390379846e-22)
(0.0175081386157 -0.0303338695797 -7.33589041141e-22)
(0.0117434578302 0.03033297771 7.45940957897e-22)
(0.0117434578302 -0.03033297771 -2.67438721292e-21)
(0.00598715828832 -0.0303326207951 -3.59051107873e-24)
(0.00598715828832 0.0303326207951 0)
(0.00692218619905 -0.0353061467437 -2.88506497827e-22)
(0.00692235003312 0.0353048910025 -2.43798702276e-23)
(0.0290426621444 0.0303333333333 -1.69480921748e-21)
(0.0290426621444 -0.0303333333333 7.95698896108e-22)
(0.00254995052568 0.00324801902179 -6.93145698315e-23)
(0.00257475562879 0.00421348116982 1.18103377444e-21)
(0.00395662556394 -0.0389575339714 1.81933040456e-22)
(0.00395662556395 0.0389575339714 2.58083884376e-21)
(0.00832321335407 0.03896104888 -3.4623243212e-22)
(0.00832321335404 -0.03896104888 8.35584398364e-22)
(0.0277132177586 0.0390401101065 -3.22301069209e-21)
(0.0276840106772 -0.0389732159945 0)
(0.0261473798236 0.0391542806142 4.1006710068e-22)
(0.0261196790111 -0.0390994498742 -6.40665118347e-21)
(0.0041439768907 0.00429106889039 -1.1101131402e-23)
(0.00102444391055 0.00430105594741 0)
(0.00180220242392 0.00469794771563 -1.92361282567e-22)
(0.0033251604768 0.00467900671114 -2.53493048715e-23)
)
;

boundaryField
{
    back
    {
        type            wedge;
    }
    front
    {
        type            wedge;
    }
    wall_bottom
    {
        type            calculated;