/*--------------------------------*- C++ -*----------------------------------*\
| =========                 |                                                 |
| \\      /  F ield         | OpenFOAM: The Open Source CFD Toolbox           |
|  \\    /   O peration     | Version:  5.0                                   |
|   \\  /    A nd           | Web:      www.OpenFOAM.org                      |
|    \\/     M anipulation  |                                                 |
\*---------------------------------------------------------------------------*/
FoamFile
{
    version     2.0;
    format      ascii;
    class       volScalarField;
    location    "0/core";
    object      Cx;
}
// * * * * * * * * * * * * * * * * * * * * * * * * * * * * * * * * * * * * * //

dimensions      [0 1 0 0 0 0 0];

internalField   nonuniform List<scalar> 
618
(
0.0266477698027
0.0266756715098
0.0242794015003
0.0242873464618
0.02672522057
0.0267469951832
0.0254491502295
0.0254591914667
0.00568840163448
0.00568840163448
0.0232745306342
0.0232639147231
0.000939647711835
0.00145517610971
0.00145517610971
0.000939647711835
0.0293819861805
0.0287159995699
0.0287159995699
0.0293819861805
0.0103338936067
0.0103338936067
0.0237711020336
0.0237740966482
0.0228617869944
0.022866948328
0.0254848685818
0.0254772303923
0.00284288069859
0.0049357417942
0.00493578104465
0.00352245578555
0.00284681702907
0.00750190051529
0.00750190051529
0.00368463631979
0.00371228962957
0.00153724158939
0.00352218221124
0.00727583893927
0.00727583893926
0.0242924344998
0.0242948911403
0.00534828482111
0.00534832267928
0.00098717058675
0.000987170586745
0.0174147353355
0.0174793771727
0.0117076618674
0.0117088790681
0.0174318141094
0.017493371622
0.00667746933527
0.00667746933528
0.00593069916678
0.0059243591131
0.0117300224501
0.011730503131
0.00593257436495
0.00592623539966
0.00938170039012
0.00938170039012
0.00153110626337
0.0105661164556
0.0105661164556
0.025150601634
0.0251481877381
0.003126375911
0.00312637591099
0.000899022711185
0.0173026716971
0.0173062158623
0.000899022711185
0.0115280729389
0.0115204005413
0.0161541631863
0.0161600969597
0.0293375456899
0.0293583298445
0.0171812199172
0.0171816955176
0.00109256448359
0.0114090905631
0.0114021223965
0.0251561912174
0.0251592946686
0.00489801165795
0.00489801165793
0.00109256448359
0.0120270981142
0.0120244850403
0.0018317926834
0.0243568164273
0.024349006615
0.0130254469815
0.013022938011
0.00268087079632
0.00308905976473
0.00308905976474
0.00133891832351
0.00133891832351
0.00268087079632
0.00183672370435
0.000924964778835
0.002417944307
0.00241794430706
0.00262568168202
0.00241794430706
0.00268046585787
0.00241794430706
0.00268046585787
0.00241794430705
0.00268046585787
0.00241794430705
0.00268046585788
0.00242248686164
0.00241794430698
0.00241825790795
0.00268046585788
0.00241794430705
0.00241794430706
0.00268046585787
0.00268046585787
0.00241794430706
0.00241794430706
0.00268046585787
0.00241794430706
0.00264121946162
0.00442654247099
0.00442654247102
0.00092496477883
0.00442654247103
0.00442654247103
0.00442654247103
0.00092496477883
0.00442654247103
0.00092496477883
0.00442654247103
0.00082284134596
0.00092496477883
0.0228989659861
0.022889836235
0.0117993792185
0.0117967401431
0.00397694967242
0.00397699319735
0.00414802276519
0.00414802276519
0.0152647010424
0.0152750029741
0.00451049419103
0.000779136998385
0.0189693766581
0.0189692825083
0.00221785121089
0.00223673544558
0.024189779083
0.0241999032532
0.00128066632268
0.001304053351
0.00336617915175
0.00448502407202
0.0021831363036
0.0164567985591
0.016462678903
0.0244590479251
0.0244602778489
0.00216410864266
0.0238792682403
0.0238912006611
0.00847258451039
0.0084725845104
0.00123295025726
0.00336219266411
0.00172216789386
0.00172216789387
0.00336249683402
0.00172216789387
0.00336183403268
0.00172216789387
0.00336183403268
0.00172216789386
0.00336183403268
0.00172216789386
0.00336183403269
0.00172763876259
0.00172216789382
0.00172252822795
0.00336183403269
0.00172216789386
0.00336183403268
0.00172216789387
0.00336183403268
0.00172216789387
0.00336183403268
0.00172216789387
0.00172216789387
0.00120865071248
0.00251995906336
0.0260985877919
0.0261077970445
0.019378304381
0.019378304381
0.0214009441194
0.0214003539399
0.0136124675298
0.0136124675298
0.0156335229166
0.0156335229165
0.00785162421704
0.00784936221385
0.00987016016673
0.00987449097427
0.0087262527605
0.00868352223618
0.00501967679383
0.00433413533089
0.00501971575638
0.0203896376177
0.0203902424186
0.0146238763598
0.0146238763599
0.0270993768634
0.0271061147371
0.00886363803277
0.0088660815511
0.00336321416091
0.000790826417175
0.00079082641717
0.00433066703614
0.0276939855412
0.0277307157608
0.00184877219433
0.0203909910324
0.0203915958127
0.0288632998326
0.0288731439027
0.0216193066173
0.0216240665878
0.0146247179493
0.0146247179492
0.00885921585405
0.00886397329837
0.00690423885727
0.00690768282678
0.0145240138885
0.0145284414448
0.00230904694022
0.00230904694022
0.00174961201868
0.00303510253729
0.0243619532035
0.024365736764
0.0255478264904
0.0255529840927
0.00111504374783
0.012662081647
0.0126619994723
0.00406875002724
0.00323105801818
0.0216502286118
0.0216526920191
0.00303515267297
0.0088491603689
0.00881396849439
0.0254547755064
0.0254630276875
0.0145946434175
0.0145859285515
0.00111504374783
0.00184877219433
0.0203881642379
0.0203870434767
0.02226065879
0.0222640318693
0.0204089302766
0.0204088019425
0.018429601794
0.0184294971135
0.00406875002722
0.00322735106599
0.00406875002724
0.00406875002725
0.00111504374783
0.00111504374782
0.00406875002725
0.00406875002725
0.00406875002725
0.00406875002725
0.00406875002725
0.00406875002725
0.00322735106602
0.00111504374782
0.00111504374782
0.00111504374782
0.00111504374782
0.00322735106602
0.00406875002725
0.00111504374782
0.00406875002725
0.00322735106602
0.00406875002725
0.00111504374782
0.00102732245864
0.00322735106603
0.00322735106603
0.00322735106603
0.00184877219432
0.00322735106602
0.00184877219432
0.00184877219433
0.00184877219432
0.00322735106603
0.00322735106603
0.00184877219432
0.00184877219432
0.00184877219432
0.00322735106603
0.00184877219432
0.00322735106603
0.00178296538996
0.0040687500272
0.00322735106596
0.0179688281726
0.0179687314053
0.0165635402011
0.016500190217
0.0176661427849
0.0176660451739
0.00130105526576
0.00130105526576
0.0108051849609
0.0108014523907
0.0295039990934
0.029513075396
0.0226866638137
0.0226962107189
0.0169160182454
0.0169160182454
0.0180978652938
0.0180978652938
0.0111563317681
0.0111522510192
0.012333102926
0.0123331029259
0.00657372754963
0.00657620660767
0.0277206902439
0.0277367146604
0.0276009699162
0.0276016541857
0.0211105047645
0.0211047110717
0.0225357309647
0.0225397382511
0.0192300335597
0.0192315987851
0.0273152852695
0.0272858685398
0.00106048798684
0.00182918312293
0.0050576079414
0.0050576079414
0.0295036672606
0.0295036672606
0.00786607225714
0.007861652393
0.0133424157052
0.0133508695772
0.0288371272035
0.0288672637605
0.0209011040437
0.0209017837956
0.0264158319804
0.0263882749234
0.0136251415802
0.0136250623206
0.0277910004404
0.0277696422761
0.014260244589
0.0142519833653
0.0193930904339
0.0193929883611
0.0141122837192
0.0141162217833
0.0212910343845
0.0212926365066
0.00493944192999
0.00493944192998
0.00721970174013
0.00721970174009
0.0184158621584
0.0184158621584
0.0156038950635
0.0155386011503
0.0126498463115
0.0126498463115
0.0223560084554
0.0223638249383
0.0135503461987
0.0135428268145
0.00688680468247
0.00688922382074
0.0165930789741
0.016593078974
0.0108281688291
0.0108323079573
0.0181052352286
0.018105794744
0.0150958085093
0.0151019438204
0.0288577524602
0.0288367916122
0.00983953077465
0.00984247109068
0.00774620210583
0.00774635674559
0.0269634082975
0.0269634082976
0.0222063742762
0.0222124699488
0.0184718939808
0.0184706607151
0.019414499751
0.0194119647506
0.0164116594198
0.0164698558142
0.0107358448368
0.0106984016445
0.0213664241039
0.0213675062831
0.0126986840881
0.0126804805474
0.00695192299023
0.00694624615261
0.0288816097629
0.0288816097629
0.0184131368445
0.0184124652636
0.0200141437213
0.0200123555326
0.0106109819439
0.0105729148289
0.0163533640452
0.016358701878
0.00913111525441
0.00913111525445
0.0232700577407
0.023263500445
0.00076927222696
0.000739751123905
0.000704659415265
0.0123087175482
0.0123045971961
0.0126224491527
0.0126341648957
0.0231507673106
0.0231507673106
0.00538980580869
0.00538980580868
0.00433685315688
0.00433685315688
0.0259585902218
0.0259616459131
0.00454317402972
0.000724112638605
0.000724112638605
0.000724112638605
0.000724112638605
0.00454343756833
0.000724112638605
0.00454286330734
0.00454286330734
0.00454286330735
0.00454286330734
0.00072471247444
0.000724112638585
0.0283967841729
0.0283974588003
0.00370221169758
0.00370221169758
0.0160983685902
0.0160924236173
0.0198609839269
0.019861773453
0.0101236387764
0.0101236387765
0.00251081444082
0.00790469415316
0.00790699893891
0.0136811192592
0.013662911088
0.00419335292931
0.00280771387275
0.00280771387275
0.0290412983152
0.0290419654572
0.000982216815885
0.0194504797316
0.0194463814722
0.00600720813708
0.00600720813707
0.00615604816743
0.00615604816742
0.021233412093
0.0212371507756
0.0155222566144
0.0154655237591
0.00418979060916
0.000944756007928
0.000944756007924
0.000944756007924
0.000944756007924
0.00418946820743
0.000944756007924
0.000944756007924
0.00418946820743
0.00418946820743
0.00419006405325
0.000944756007924
0.00418946820743
0.000944756007924
0.00418946820743
0.00418946820744
0.00418946820743
0.00418946820743
0.000945249937862
0.000944756007924
0.000944756007921
0.000945249937862
0.000944756007898
0.000944756007911
0.0097913992565
0.00975830009677
0.00313009705999
0.00313009706
0.00950177739667
0.00954271144721
0.00466638533068
0.0296800876404
0.0296800876404
0.0223165738692
0.0223191189025
0.00466299448371
0.00412944811501
0.00329501898398
0.0153506854482
0.01533772386
0.00228035525903
0.00228035525903
0.0278153096025
0.0278153096025
0.00417820329701
0.00398334227751
0.00398334227751
0.00052498000961
0.0110147320919
0.0110147320919
0.00465170489464
0.00057671464306
0.0170091562404
0.0170091562404
0.0005249800096
0.0046629944837
0.00052498000961
0.0046629944837
0.000524980009615
0.000524980009615
0.0046629944837
0.00466299448371
0.0046629944837
0.00052498000962
0.0046629944837
0.000524980009615
0.000524980009615
0.00466299448371
0.00052498000961
0.000524980009605
0.00466299448371
0.000524980009605
0.00466299448371
0.000524980009605
0.00052498000961
0.000524980009605
0.00466299448371
0.00466299448371
0.00466299448371
0.0270073256764
0.0269777437686
0.00240716005915
0.00240716005916
0.0232705488679
0.0232776427182
0.0175081386156
0.0175081386157
0.0117434578302
0.0117434578302
0.00598715828832
0.00598715828832
0.00692218619905
0.00692235003312
0.0290426621444
0.0290426621444
0.00254995052568
0.00257475562879
0.00395662556394
0.00395662556395
0.00832321335407
0.00832321335404
0.0277132177586
0.0276840106772
0.0261473798236
0.0261196790111
0.0041439768907
0.00102444391055
0.00180220242392
0.0033251604768
)
;

boundaryField
{
    back
    {
        type            wedge;
    }
    front
    {
        type            wedge;
    }
    wall_bottom
    {
        type            calculated;
        value           nonuniform List<scalar> 
20
(
0.00133328256409
0.0299988576919
0.0290103895841
0.0250123809022
0.0299988576919
0.00506647374352
0.0130251450492
0.0190168197299
0.0299988576919
0.0299988576919
0.0210150727958
0.00704735069587
0.015021650222
0.00903669293433
0.0230136164322
0.00311099264953
0.0299988576919
0.0110298830302
0.0170189597886
0.0270113171317
)
;
    }
    wall_top
    {
        type            calculated;
        value           nonuniform List<scalar> 
20
(
0.00133328256409
0.0290103895841
0.0299988576919
0.0250123809022
0.0299988576919
0.00506647374354
0.0130251450492
0.0190168197299
0.0299988576919
0.0299988576919
0.0210150727958
0.0070473506959
0.015021650222
0.00903669293436
0.0230136164322
0.00311099264955
0.0299988576919
0.0110298830302
0.0170189597886
0.0270113171317
)
;
    }
    core_to_fluid
    {
        type            calculated;
        value           nonuniform List<scalar> 
56
(
0.0252035812944
0.0252035812945
0.00499980961532
0.00499980961532
0.00499980961532
0.00499980961532
0.00499980961532
0.00499980961532
0.00499980961532
0.00499980961532
0.00499980961532
0.0194382037189
0.019438203719
0.0213597780147
0.0213597780147
0.0136758967231
0.0136758967231
0.0155961139441
0.0155961139441
0.00792340060364
0.00792340060365
0.00983874048986
0.00983874048987
0.0271257174147
0.0271257174147
0.00499980961532
0.00499980961532
0.00499980961532
0.00499980961532
0.00499980961532
0.00499980961532
0.00499980961532
0.00499980961532
0.00499980961532
0.00499980961532
0.00499980961532
0.00499980961532
0.00499980961532
0.00499980961532
0.00499980961532
0.00499980961532
0.00499980961532
0.00499980961532
0.00499980961532
0.00499980961532
0.00499980961532
0.0232815885754
0.0232815885754
0.0175169435776
0.0175169435777
0.0117565931013
0.0117565931013
0.00601300511222
0.00601300511222
0.029047968446
0.029047968446
)
;
    }
}


// ************************************************************************* //
