/*--------------------------------*- C++ -*----------------------------------*\
| =========                 |                                                 |
| \\      /  F ield         | OpenFOAM: The Open Source CFD Toolbox           |
|  \\    /   O peration     | Version:  5.0                                   |
|   \\  /    A nd           | Web:      www.OpenFOAM.org                      |
|    \\/     M anipulation  |                                                 |
\*---------------------------------------------------------------------------*/
FoamFile
{
    version     2.0;
    format      ascii;
    class       volScalarField;
    location    "0/core";
    object      Cy;
}
// * * * * * * * * * * * * * * * * * * * * * * * * * * * * * * * * * * * * * //

dimensions      [0 1 0 0 0 0 0];

internalField   nonuniform List<scalar> 
618
(
0.0345595228
-0.0345512060857
-0.0357409521624
0.0357226964108
0.0357157555992
-0.0357057244588
-0.0363856488896
0.0363777433799
-0.0385442494515
0.0385442494515
0.0360508954618
-0.0360911381612
0.0385603165079
-0.0393025424937
0.0393025424937
-0.0385603165079
-0.0387129008551
-0.0393796390304
0.0393796390304
0.0387129008551
-0.0374151683173
0.0374151683173
0.0337037649915
-0.0337036692233
0.0336573146586
-0.0336694531646
0.0374380882476
-0.0374592314631
0.0304207350922
0.0323005668312
-0.0323006157496
0.0297503795172
-0.0304306460249
-0.0375671018377
0.0375671018377
0.00163048478148
0.00265539787185
0.00271358826505
-0.0297499733288
-0.0367556764761
0.0367556764761
0.039031154892
-0.0390444083254
0.0315188194394
-0.0315188693549
0.0349228991337
-0.0349228991338
0.0339742556936
-0.03397274267
-0.03396918462
0.0339673577696
0.0331132460901
-0.0331124687458
-0.0386592372328
0.0386592372328
-0.0338919046448
0.0338929632423
-0.033110652826
0.0331092370434
-0.0330576403972
0.0330584905663
-0.0371553746437
0.0371553746437
0.00164713415901
-0.0382687282551
0.0382687282551
-0.0395014022199
0.0394882761293
0.0354879177275
-0.0354879177275
0.0310312799772
0.0359543641642
-0.0359544207127
-0.0310312799772
0.0359330859166
-0.0359372840552
-0.037422453171
0.0374189717563
0.0350195429257
-0.0350098780138
0.0368144895919
-0.0368145774946
0.030091181544
0.0367834287496
-0.0367873268914
0.030593377479
-0.0305866329161
0.0393932718686
-0.0393932718686
-0.030091181544
-0.0390556100179
0.0390476842364
0.0296890056731
0.0380484890508
-0.03806992469
-0.0394150740044
0.0394073256981
0.0276592086096
-0.0342112266624
0.0342112266624
0.0357287090049
-0.0357287090049
0.0263428638337
-0.029700337263
0.027
-0.00367609898813
-0.00767609898816
0.00768091804173
-0.0116760989882
0.0116581934145
-0.0156760989881
0.0156581934145
-0.0196760989881
0.0196581934145
-0.0236760989881
0.0236581934145
-0.027688375791
-0.0023239010118
-0.0263248473978
0.0223418065855
-0.0223239010119
-0.0183239010119
0.0183418065856
0.0143418065856
-0.0143239010119
-0.0103239010119
0.0103418065856
-0.0063239010119
0.00641305514933
-0.00300000000004
-0.027
0.023
-0.0110000000001
-0.023
-0.019
0.019
-0.015
0.0150000000001
-0.00700000000006
0.00701643205179
0.0110000000001
0.0370570147202
-0.0371021800539
-0.038228742384
0.03822073258
0.0324903910426
-0.0324904415633
0.0359842643832
-0.0359842643832
-0.037117220104
0.0371095674447
0.00322896647033
0.00336458333341
-0.0394277457449
0.0394276784972
-0.0335949456188
0.0335974988816
0.030977788411
-0.0309723197885
-0.0339759917908
0.0339752307429
0.0283340497479
0.0008768021657
0.032376040657
-0.0382841156002
0.0382805675737
0.034585647241
-0.0345850957253
-0.0323704411655
0.0318563585684
-0.0318512629124
-0.03787205821
0.03787205821
0.0319999226326
0.0256785580601
-0.00435512213193
-0.00835512213194
0.00833035238937
-0.0123551221319
0.0123224445532
-0.0163551221319
0.0163224445532
-0.0203551221319
0.0203224445532
-0.0243551221319
0.0243224445532
-0.028368382171
-0.00164487786796
-0.0256459449946
0.0216775554468
-0.021644877868
0.0176775554468
-0.017644877868
0.0136775554468
-0.013644877868
0.00967755544682
-0.00964487786805
-0.00564487786803
-0.0319893218228
8.1837537709e-05
0.0321666554473
-0.0321615615314
0.0305605862174
-0.0305605862174
-0.030570603561
0.0305750199873
0.0305599260408
-0.0305599260408
-0.0305619258153
0.0305619258153
0.0305592733422
-0.0305593432548
0.0305617031228
-0.0305621738276
-0.0355395919707
0.0355389131863
0.030710447998
0.0300567754075
-0.0307105003695
0.0311358671696
-0.0311313918992
0.0311220347338
-0.0311220347338
0.0322142242135
-0.0322160157865
0.0311214085611
-0.0311219472913
0.00579222377119
0.0367456655657
-0.0367456655657
-0.0300472545729
0.0339745601904
-0.0339077163362
0.0283287037037
0.0322436925508
-0.0322392093513
0.0324842063935
-0.0324263387194
0.0388026983215
-0.0388200304247
-0.0322286190351
0.0322286190351
-0.032239441494
0.0322273770163
0.032503342139
-0.0325028624505
0.0355225952397
-0.0355323927528
0.0360696433941
-0.0360696433941
-0.000463019582979
0.031741347505
0.0326857077964
-0.0326683862884
0.03408363588
-0.0340743900359
0.0279310344828
0.0325122986778
-0.0325123435313
-0.0280165289256
-0.0283462344233
0.0369522953236
-0.036990502575
-0.031741404006
-0.0344220874646
0.0344080869857
0.0329188338579
-0.0329028408794
-0.0344305656573
0.0344246842754
0.0260689655172
0.0256712962963
0.0344271895281
-0.0344293255538
0.0326213142248
-0.0326185701535
0.0355619392813
-0.0355648289315
0.0325148712437
-0.0325148639551
-0.00401652892566
-0.00433593750004
-0.0259834710744
-0.0219834710744
0.0239310344828
0.0220689655172
-0.0179834710744
-0.0200165289256
-0.0120165289257
-0.00998347107447
-0.0240165289256
-0.0139834710744
-0.0216640625
0.0180689655173
0.0140689655173
0.0199310344828
0.0100689655173
-0.0203359375
-0.0160165289256
0.0159310344829
-0.00598347107445
-0.0243359375
-0.00801652892568
0.0119310344829
0.0079579832202
-0.0163359375
-0.0123359375
-0.0176640625
0.0216712962963
-0.0256640625
0.0203287037037
0.0243287037037
0.0123287037038
-0.00966406250007
-0.0136640625
0.00967129629638
0.0136712962964
0.0176712962964
-0.00833593750006
0.0163287037038
-0.00566406250007
0.00835244411325
-0.00198347107442
-0.00166406249998
-0.0390834250223
0.0390833564354
-0.0325168487887
0.0325170476888
-0.0382691174181
0.0382690474591
0.0374970016116
-0.0374970016116
-0.0325154868243
0.0325138396417
0.0331728982896
-0.0331151189686
0.0318380963022
-0.0318355354015
-0.0316917047398
0.0316917047398
0.0316918302034
-0.0316918302034
-0.0316889276342
0.0316885898691
-0.0316890583664
0.0316890583664
-0.0316883630367
0.0316882029849
0.032929607549
-0.0328726831951
0.031102803224
-0.0311029826769
-0.0377307375664
0.0377125336616
0.0388288290679
-0.0388439002636
0.0371658567466
-0.0371667378939
0.0379761173542
-0.0379086966182
0.00610786787549
0.00577392728288
-0.0353557407862
0.0353557407862
-0.0368579299572
0.0368579299572
0.0328213955074
-0.0328329384788
-0.0371113340386
0.0370954406355
0.0341920272005
-0.0341243000164
0.0395161536658
-0.0395182690435
0.0380870153262
-0.0380320516205
0.0328272945186
-0.0328273391505
-0.0361326487319
0.0361426589002
0.037716874386
-0.0377324270865
0.0328284937853
-0.0328284870716
-0.0388575880067
0.0388462122847
0.0328457984917
-0.0328425365199
-0.0343442030672
0.0343442030672
0.0395034168755
-0.0395034168755
0.0308976226705
-0.0308976226705
-0.0328238473082
0.0328243129641
0.0308975026415
-0.0308975026415
0.0309548826566
-0.0309518957606
-0.036032665036
0.0360169551241
-0.0309003566492
0.0309002625661
-0.0308922153311
0.0308922153311
0.030889145862
-0.0308895669156
0.0374430707908
-0.0374432241446
-0.0394411051525
0.0394373650379
-0.0358683570323
0.0358782215903
-0.0328332127535
0.0328201385476
-0.0359217473571
0.035920525837
0.0304580805489
-0.0304580805489
0.0344313249686
-0.0344452411356
0.0344806989463
-0.0344806329056
0.0360723803466
-0.0360732061464
0.0344745206524
-0.0344701727451
-0.0344654362411
0.0344629917378
0.0359842398699
-0.0360093431189
-0.0344814308499
0.0344724287207
-0.034428262502
0.0344281256997
-0.0375678079746
0.0375678079746
0.0354859724277
-0.0354860184228
-0.0378515707548
0.037848637681
-0.0354344180087
0.0354342804509
-0.0354449468124
0.0354471269916
-0.0394538308391
0.0394538308391
0.0378433243761
-0.037866564781
0.000824625083188
0.033
-0.032993349465
0.037397520997
-0.0374093842392
0.03546506745
-0.0354773071548
-0.0395419911551
0.0395419911551
-0.0373283386349
0.0373283386349
-0.0371048616195
0.0371048616195
0.0310512578487
-0.0310445509898
0.0270009022464
-0.00699999999994
-0.0149999999999
-0.011
-0.023
0.00700742319657
-0.019
0.015
0.0109999999999
0.023
0.019
-0.0270015224258
-0.00299999999992
0.0309779648879
-0.0309781436792
-0.0379019238989
0.0379019238989
0.0391004296916
-0.0391040751132
0.0389439719242
-0.0389461864605
-0.0391050454937
0.0391050454938
0.00117910330506
-0.0339178251362
0.0339052818701
-0.0339331995981
0.0339245891376
0.028018955819
0.0378733860533
-0.0378733860533
0.0316447602902
-0.0316449341108
-9.2618855745e-05
0.0339310017355
-0.0339308821213
-0.0357764223148
0.0357764223148
-0.036645105089
0.036645105089
0.033928143013
-0.0339315217541
-0.0339199980948
0.0339240003286
0.0259929751438
-0.00603985545606
-0.0140398554561
-0.0100398554561
-0.0180398554561
0.0139920354872
-0.0079601445438
-0.0159601445438
0.0160079645128
0.0120079645128
0.00801547715002
-0.0220398554561
0.00999203548714
-0.0119601445438
0.0179920354872
0.0240079645128
0.0219920354872
0.0200079645128
-0.0279612463272
-0.0199601445438
-0.0239601445439
-0.0260411589727
-0.00203985545605
-0.00396014454379
-0.0339302328041
0.0339159251376
-0.0395742074165
0.0395742074165
0.0360174718742
-0.0360165175255
0.0290096355429
-0.031
0.031
0.0353544166802
-0.035389091105
-0.029
-0.000137414756044
-0.000461094839121
0.0359945116219
-0.0359964665274
-0.0371236160276
0.0371236160276
-0.0371685288396
0.0371685288396
0.00604869823917
-0.0337176598743
0.0337176598743
0.029
-0.0396452475425
0.0396452475425
0.00504714973453
0.00507203080417
-0.0396590582449
0.0396590582449
-0.000999999999903
0.013
-0.029
0.017
-0.0169999999999
-0.00899999999992
0.00899999999994
0.025
0.021
-0.00499999999991
-0.00100000000008
-0.0129999999999
-0.0209999999999
-0.025
-0.025
0.00900000000008
-0.021
0.021
-0.017
0.0130000000001
0.025
0.0170000000001
-0.013
-0.00900000000007
-0.00500000000007
0.0396638172484
-0.0395966637669
-0.0389471574529
0.0389471574529
0.0303821345569
-0.0303835478624
0.0303338695797
-0.0303338695797
0.03033297771
-0.03033297771
-0.0303326207951
0.0303326207951
-0.0353061467437
0.0353048910025
0.0303333333333
-0.0303333333333
0.00324801902179
0.00421348116982
-0.0389575339714
0.0389575339714
0.03896104888
-0.03896104888
0.0390401101065
-0.0389732159945
0.0391542806142
-0.0390994498742
0.00429106889039
0.00430105594741
0.00469794771563
0.00467900671114
)
;

boundaryField
{
    back
    {
        type            wedge;
    }
    front
    {
        type            wedge;
    }
    wall_bottom
    {
        type            calculated;
        value           nonuniform List<scalar> 
20
(
-0.04
-0.039
-0.04
-0.04
-0.035
-0.04
-0.04
-0.04
-0.033
-0.037
-0.04
-0.04
-0.04
-0.04
-0.04
-0.04
-0.031
-0.04
-0.04
-0.04
)
;
    }
    wall_top
    {
        type            calculated;
        value           nonuniform List<scalar> 
20
(
0.04
0.04
0.039
0.04
0.035
0.04
0.04
0.04
0.033
0.037
0.04
0.04
0.04
0.04
0.04
0.04
0.031
0.04
0.04
0.04
)
;
    }
    core_to_fluid
    {
        type            calculated;
        value           nonuniform List<scalar> 
56
(
0.03
-0.03
-0.00300000000007
-0.027
-0.0110000000001
-0.023
-0.019
-0.015
-0.00700000000007
0.00299999999993
0.000999999999918
0.03
-0.03
-0.03
0.03
0.03
-0.03
-0.03
0.03
0.03
-0.03
0.03
-0.03
0.03
-0.03
0.027
0.00699999999993
0.015
0.0109999999999
0.023
0.019
0.029
-0.029
0.00499999999993
0.0129999999999
0.017
0.00899999999994
0.025
0.021
-0.00100000000008
-0.025
-0.021
-0.017
-0.013
-0.00900000000008
-0.00500000000007
0.03
-0.03
0.03
-0.03
0.03
-0.03
-0.03
0.03
0.03
-0.03
)
;
    }
}


// ************************************************************************* //
