/*--------------------------------*- C++ -*----------------------------------*\
| =========                 |                                                 |
| \\      /  F ield         | OpenFOAM: The Open Source CFD Toolbox           |
|  \\    /   O peration     | Version:  5.0                                   |
|   \\  /    A nd           | Web:      www.OpenFOAM.org                      |
|    \\/     M anipulation  |                                                 |
\*---------------------------------------------------------------------------*/
FoamFile
{
    version     2.0;
    format      ascii;
    class       volScalarField;
    location    "0/core";
    object      Cz;
}
// * * * * * * * * * * * * * * * * * * * * * * * * * * * * * * * * * * * * * //

dimensions      [0 1 0 0 0 0 0];

internalField   nonuniform List<scalar> 
618
(
0
0
0
0
-9.53143947215e-23
-9.96813294499e-22
-2.70265426728e-21
1.62128823422e-21
0
0
-5.98483846567e-21
0
0
0
0
0
0
0
0
0
0
0
0
-9.7617821306e-21
-1.01706585797e-22
3.05168345843e-22
8.21239488572e-21
1.05652382216e-22
0
0
-3.65712968198e-21
0
0
-1.31569872671e-21
-7.89419236014e-21
2.09310674957e-21
-1.78875235082e-21
0
0
2.20128520223e-23
1.89574620776e-21
0
0
0
1.09799230538e-21
0
0
-4.12771535906e-21
0
1.69625354792e-21
0
-1.06721370572e-22
-7.11017605727e-21
-2.62729334516e-23
-2.46317714893e-23
-7.69761955766e-22
0
-2.31633474165e-21
4.79441834052e-21
1.65457044952e-22
-3.56063865934e-22
-8.53576645844e-21
0
0
0
4.47323907472e-23
-1.10438311013e-22
-7.95659992453e-21
0
0
0
1.05276377198e-20
0
0
-3.17732369359e-21
1.59747856983e-21
0
0
0
0
1.51477520968e-21
6.16918112099e-21
0
5.7472398768e-24
-9.42308120044e-24
9.06957681767e-22
1.63720631437e-20
0
-8.05910294092e-25
0
0
0
7.97811720034e-22
-3.52888424372e-21
1.94650840843e-21
4.45031517591e-22
-4.91377790905e-23
0
6.99722345186e-22
-5.8819430846e-22
0
0
0
7.90760641252e-22
0
0
0
0
0
0
0
0
-1.40325059603e-21
0
0
4.20189813877e-22
0
3.89861398666e-24
3.90103630226e-24
8.40379627754e-22
5.00985802796e-22
-3.89861398663e-24
1.52613717554e-22
1.52613717554e-22
-3.89861398663e-24
-3.89861398663e-24
1.52613717554e-22
-3.89861398663e-24
-2.00136396389e-21
0
9.29004116265e-22
0
0
0
0
0
0
0
0
0
0
-1.01385392232e-20
0
4.06166473689e-22
-7.42205010511e-22
0
-3.19863666282e-22
0
0
5.18540207873e-21
0
-1.0504271839e-23
0
0
1.16992098265e-20
-1.27574325814e-22
9.22734876381e-22
-1.01634770059e-21
6.78782042257e-21
6.56627982697e-23
7.21158959125e-23
0
0
-1.79869848932e-23
8.93251677658e-21
-2.90602598782e-21
0
-9.10087685387e-22
0
9.74447615869e-23
-1.0502083311e-22
2.23099561918e-21
3.10897108046e-21
4.96211847522e-23
0
-4.57929175476e-22
3.42697895825e-22
-9.66922422581e-24
3.89795222748e-22
0
0
-1.87095771178e-22
-1.54028064006e-22
0
-1.54028064006e-22
0
5.31154081067e-22
-9.10384492313e-23
2.53100972131e-23
5.79820131165e-22
-8.91859716672e-22
1.52108111103e-22
4.59201257497e-22
1.52108111103e-22
-3.20389187943e-22
-1.0090568056e-23
-3.70232165261e-22
5.44755272008e-24
0
5.1764818532e-22
0
6.05258915249e-21
-4.43142748297e-21
1.17726687817e-21
9.57248639783e-23
1.04757535603e-22
-4.19066015673e-22
4.19066015672e-22
0
1.54581125716e-21
-1.18843630366e-21
2.21608935033e-23
-5.49568736779e-23
0
0
0
0
-1.02809733445e-21
1.49819151839e-21
-2.07455078523e-22
-1.1150230559e-21
0
8.01102606704e-22
6.57086228863e-21
-1.84782663518e-20
-5.87875343197e-22
-3.33240694566e-22
-1.00245641962e-22
0
0
-3.24119754666e-23
0
0
-1.60248865077e-22
0
9.68125326348e-22
0
0
-3.6447005613e-21
0
0
0
0
4.39088903961e-23
2.34088226705e-21
0
0
0
5.03694992417e-24
1.02857194379e-22
2.05500994054e-22
-2.40486982267e-22
-1.00367072022e-21
1.17835741688e-21
1.03925724316e-21
1.21932679644e-24
0
6.4261850839e-22
4.7001331191e-23
-6.44068043272e-22
4.78204553224e-23
-1.25504640296e-21
0
-6.74286728963e-23
-6.15853228205e-21
-6.76463045031e-22
8.2479693028e-26
1.7636130763e-21
-1.13639908139e-20
8.11118061599e-21
0
0
3.80382993657e-21
2.62948463485e-20
0
9.86425024718e-23
0
-7.53413218041e-21
-4.87523462768e-21
9.06848190286e-22
-1.28813608647e-21
0
6.34272211773e-22
0
0
0
0
0
0
1.61609860764e-22
0
1.61609860764e-22
-3.02655377651e-22
0
0
0
0
-2.56005352779e-23
0
0
0
2.20232256442e-22
0
0
0
0
0
0
8.83575873311e-23
-1.6564992201e-22
-4.40002856289e-22
-5.39645126523e-23
-5.47230300856e-23
-1.02183615094e-22
0
-1.22432764018e-21
1.24537874134e-22
0
-2.00690010137e-23
-7.92054801933e-23
1.15779337908e-23
3.74881258947e-22
-9.79583149887e-24
6.30331269217e-22
0
-5.22336237917e-22
-9.89817973759e-23
2.603376951e-21
-2.0649257166e-22
5.29410471707e-21
0
0
2.15730445873e-21
-5.3929421899e-23
0
-2.17635154887e-22
1.01908896661e-21
1.01564228832e-21
6.80891335108e-22
6.80891335075e-22
1.12835338516e-22
-1.02487611273e-22
5.21547976552e-22
-4.89937065011e-21
-5.02781800791e-23
0
0
0
-2.77423825667e-21
-2.10777860358e-21
-2.99337551158e-22
1.33153550719e-20
0
2.14623664564e-22
3.77000527111e-21
0
0
0
0
-7.12131922448e-21
0
1.91032584551e-22
0
0
0
0
1.16122677775e-21
-4.25811850823e-21
0
0
6.57550264626e-21
2.59544614243e-21
4.17113150369e-21
1.12223212769e-22
7.13117298301e-22
-6.09852224292e-21
-1.34749154175e-21
0
-6.6794430689e-21
0
9.34070077206e-22
8.50026425358e-22
0
0
4.6931701399e-22
-4.91530662434e-23
1.29118626445e-20
-1.0928276828e-22
2.92503849429e-22
5.73577538842e-23
-4.50567123905e-23
-5.975953581e-23
8.24933836469e-21
-5.99601701281e-21
-8.04518789925e-21
1.56209403603e-21
-1.96854551281e-21
-1.05854510461e-22
0
1.11297059971e-21
4.75086351699e-22
4.12063204051e-22
-9.0854825488e-22
0
7.35906340588e-22
5.86448099953e-21
-5.6362796847e-22
2.86468484091e-21
-3.85258582603e-21
3.72017021919e-22
1.61608723396e-21
7.73215726792e-22
-1.11611694083e-21
-2.16644129764e-21
-5.68950742504e-23
-2.28611481948e-21
1.92031334124e-21
0
8.9744647748e-22
2.40733459275e-22
-7.7731181529e-21
1.04739604082e-22
-6.55284431058e-22
4.30169703149e-21
4.10794060268e-21
2.42283394002e-21
2.41433568469e-21
1.05505624131e-22
-1.46995749371e-21
3.97747623495e-21
4.52155841663e-21
-1.0728703428e-22
-3.15172992464e-21
-1.63886547888e-21
1.58215039156e-22
0
1.16409097862e-20
-9.92138408199e-21
-4.41439713293e-22
-4.40596927587e-21
-8.20412806235e-21
-1.01384461667e-22
0
4.88865613346e-23
-1.25547277553e-20
-4.69022975203e-21
-5.53194926935e-23
-2.03067765204e-21
-2.38974833898e-21
1.21976038342e-21
0
0
0
3.42545793639e-24
4.61589855373e-21
7.18070010045e-23
5.10958399625e-21
0
-3.80215034214e-21
0
-1.08003398579e-21
1.50955627857e-22
-2.08292020047e-22
1.16495734948e-21
-2.79939280511e-20
0
0
0
0
0
0
0
0
0
0
0
0
0
-1.99162129141e-22
1.42754044567e-20
-2.20163948685e-22
-2.15570275137e-23
-3.18898849225e-21
1.1251025463e-22
5.43597741441e-22
-2.30431258161e-22
-6.54324655559e-22
3.81867167795e-22
-3.63804450738e-22
4.04327067479e-21
-2.64802458417e-21
8.66250401495e-22
-1.0562331053e-21
-2.17196888774e-23
4.27150084625e-22
-4.54757398365e-22
0
-4.20658572127e-22
9.70354039508e-23
-5.88547440446e-22
1.87790841581e-23
-2.01882449602e-22
1.05707169949e-21
9.85928535563e-22
-5.43613341417e-23
-2.24543385981e-22
2.95592992968e-22
1.6968167219e-20
1.16988104862e-21
-1.43878449336e-21
9.15808880023e-24
8.4718070632e-23
0
0
0
-8.47180706377e-23
0
-1.77423216425e-22
0
1.79454217175e-22
0
-1.7742321642e-22
0
1.77423216425e-22
-2.18790643497e-22
-2.12906622488e-21
-1.77423216425e-22
7.815652891e-23
0
-6.63959346941e-24
-9.16140895178e-24
9.15808880029e-24
6.63959346957e-24
1.12683594122e-22
4.69285946408e-21
-7.98518683371e-23
-5.30777157171e-22
4.11240841737e-23
-8.41787119025e-22
0
0
0
3.98600095764e-21
2.53523601444e-21
5.52208685971e-23
0
-1.31063414497e-22
1.05566248018e-20
1.01080968088e-20
-3.08243154141e-22
1.17127030153e-21
-1.0381848198e-21
1.0381848198e-21
-1.90038221061e-22
-1.15312898208e-23
-1.11165149566e-23
0
-5.60081336772e-21
1.0771801734e-22
0
0
-8.60569016704e-21
-6.61355039423e-21
0
0
0
2.32513995352e-22
0
0
0
5.52208685971e-23
0
0
1.5429491475e-21
0
0
5.52208685971e-23
0
0
0
0
0
0
0
0
0
2.3251399535e-22
0
2.2733587463e-20
0
2.01744747498e-21
1.22247854614e-22
1.10348890885e-21
-1.1032925702e-21
-2.33390379846e-22
-7.33589041141e-22
7.45940957897e-22
-2.67438721292e-21
-3.59051107873e-24
0
-2.88506497827e-22
-2.43798702276e-23
-1.69480921748e-21
7.95698896108e-22
-6.93145698315e-23
1.18103377444e-21
1.81933040456e-22
2.58083884376e-21
-3.4623243212e-22
8.35584398364e-22
-3.22301069209e-21
0
4.1006710068e-22
-6.40665118347e-21
-1.1101131402e-23
0
-1.92361282567e-22
-2.53493048715e-23
)
;

boundaryField
{
    back
    {
        type            wedge;
    }
    front
    {
        type            wedge;
    }
    wall_bottom
    {
        type            calculated;
        value           nonuniform List<scalar> 
20
(
0
0
0
-5.87276176763e-22
0
-1.69406589451e-22
0
0
0
0
5.91578566337e-22
-3.22679218001e-22
-4.11426773016e-21
-3.1371590639e-22
0
-4.54624788998e-22
0
-3.08011980819e-22
0
0
)
;
    }
    wall_top
    {
        type            calculated;
        value           nonuniform List<scalar> 
20
(
0
0
0
-5.42101086242e-22
0
0
-2.60625522232e-22
0
0
0
5.37798696669e-22
-1.21004706751e-22
4.11426773016e-21
0
0
-4.70573859586e-23
0
0
0
0
)
;
    }
    core_to_fluid
    {
        type            calculated;
        value           nonuniform List<scalar> 
56
(
5.09541066082e-21
-5.09541066054e-21
0
0
0
0
0
0
0
0
0
-3.30444948778e-21
6.60889897589e-21
5.39252206659e-22
5.90125056346e-22
-2.35034787511e-21
2.35034787511e-21
0
-4.71990889599e-21
0
1.23956041062e-22
-3.10025131021e-22
0
3.56460791583e-21
5.27869823014e-21
0
0
0
0
0
0
0
0
0
0
0
0
0
0
0
0
0
0
0
0
0
5.51651897931e-21
-5.51651897931e-21
-5.95715479389e-22
-3.6675758051e-21
0
0
1.18402454993e-22
0
-1.16677386112e-21
-1.09198066489e-21
)
;
    }
}


// ************************************************************************* //
