/*--------------------------------*- C++ -*----------------------------------*\
| =========                 |                                                 |
| \\      /  F ield         | OpenFOAM: The Open Source CFD Toolbox           |
|  \\    /   O peration     | Version:  5.0                                   |
|   \\  /    A nd           | Web:      www.OpenFOAM.org                      |
|    \\/     M anipulation  |                                                 |
\*---------------------------------------------------------------------------*/
FoamFile
{
    version     2.0;
    format      ascii;
    class       volScalarField;
    location    "0/A1";
    object      Cx;
}
// * * * * * * * * * * * * * * * * * * * * * * * * * * * * * * * * * * * * * //

dimensions      [0 1 0 0 0 0 0];

internalField   nonuniform List<scalar> 
80
(
0.01229841711
0.01229841711
0.0129685223049
0.0129715919481
0.0180821213628
0.0180821213628
0.0174036441266
0.0173739736268
0.0156619422532
0.0156145711981
0.0146829701569
0.014702438928
0.0111430100212
0.0111430100212
0.0175230651328
0.0157930851337
0.0165870940469
0.0105653150575
0.0105653150575
0.0106318637742
0.0162609106372
0.0162302181189
0.0166787015164
0.0159060317045
0.0197644022724
0.0166584432983
0.0141442430751
0.0141471820829
0.0175457956705
0.0127193587758
0.0120008553435
0.0125184510505
0.0121844965725
0.011064535199
0.0111322742618
0.0183027819174
0.0182805192617
0.0143877626859
0.0127524582791
0.0127625322829
0.017550509191
0.0175573283738
0.0136236365658
0.0192838109899
0.0192838109899
0.0149329039252
0.0141734819811
0.016637736293
0.0199261927067
0.0199261927067
0.0201099435453
0.0201099435453
0.0158214815578
0.0193352837564
0.0193352837564
0.0150122419677
0.0104456481256
0.0105154230696
0.0151202693794
0.0138248484532
0.0140895286988
0.0157554683642
0.0183556075169
0.018333376362
0.0109993525366
0.0110672998916
0.0189395270532
0.0189395270532
0.019536485973
0.019536485973
0.0143563197766
0.0120107473902
0.0119382965494
0.0136018001843
0.0195217518078
0.0195217518078
0.0150248276079
0.0134317828382
0.013510929619
0.0128347777126
)
;

boundaryField
{
    back
    {
        type            wedge;
    }
    front
    {
        type            wedge;
    }
    A1_to_c1
    {
        type            calculated;
        value           nonuniform List<scalar> 
22
(
0.0126193901383
0.0126193901383
0.0178133874461
0.0178133874461
0.0108892922381
0.0108892922381
0.00999961923064
0.00999961923064
0.00999961923064
0.016081637522
0.016081637522
0.0203992232305
0.0143502545991
0.0143502545991
0.0203992232305
0.0203992232305
0.0203992232305
0.0203992232305
0.00999961923064
0.00999961923064
0.0195454066715
0.0195454066715
)
;
    }
}


// ************************************************************************* //
