/*--------------------------------*- C++ -*----------------------------------*\
| =========                 |                                                 |
| \\      /  F ield         | OpenFOAM: The Open Source CFD Toolbox           |
|  \\    /   O peration     | Version:  5.0                                   |
|   \\  /    A nd           | Web:      www.OpenFOAM.org                      |
|    \\/     M anipulation  |                                                 |
\*---------------------------------------------------------------------------*/
FoamFile
{
    version     2.0;
    format      ascii;
    class       volScalarField;
    location    "0/A1";
    object      Cy;
}
// * * * * * * * * * * * * * * * * * * * * * * * * * * * * * * * * * * * * * //

dimensions      [0 1 0 0 0 0 0];

internalField   nonuniform List<scalar> 
80
(
0.00444642909418
-0.00444642909417
0.00389391378522
-0.00391884727573
-0.00439870710916
0.00439870710916
-0.00385512896063
0.00381079776765
-0.00366385891786
0.00368085257588
0.00372482966373
-0.00368542427947
-0.0044326200097
0.0044326200097
-0.000549391235299
0.00252741209245
0.00216451219234
-0.00376662300494
0.00376662300495
6.96216841314e-05
-0.00445332196162
0.00440853303516
-0.000962859893862
-0.00241272904974
-7.55413057634e-15
-0.0021700662954
0.00445284502404
-0.00447720667625
0.000660049024995
0.00099272555055
0.0013780745437
-0.00151055987659
-0.000745425551958
0.00100237668859
-0.000834274968829
0.00113071802637
-0.00118615451027
-0.002537869371
0.00292352889947
-0.00294460929306
0.00272572800458
-0.00282693431185
-0.00236160664137
-0.000890767930216
0.000890767930207
0.00109099594757
0.000799137150889
0.00117073618391
-0.00188949857704
0.00188949857703
0.00402065060319
-0.0040206506032
-0.000315508832521
-0.00262617651755
0.00262617651754
-0.000923696443114
0.00193658258218
-0.00190411356949
-0.00180951974633
-1.07662093883e-05
-0.000752738579812
0.000604978724581
0.00220375197511
-0.00225948727958
0.00270915006436
-0.0026759533978
0.00409076392967
-0.00409076392968
-0.00468748809853
0.00468748809853
0.00262451087324
-0.00237583514715
0.00241187355252
0.00238877943136
-0.0034232737179
0.00342327371789
0.00201821202984
-0.00146432437837
0.00149111488189
4.39245484321e-05
)
;

boundaryField
{
    back
    {
        type            wedge;
    }
    front
    {
        type            wedge;
    }
    A1_to_c1
    {
        type            calculated;
        value           nonuniform List<scalar> 
22
(
0.005
-0.005
-0.005
0.005
-0.005
0.005
-0.00399999999999
0.004
1.00000792708e-14
-0.005
0.005
-1.00000487779e-14
0.005
-0.005
-0.002
0.00199999999999
0.00399999999999
-0.004
0.002
-0.00199999999999
-0.005
0.005
)
;
    }
}


// ************************************************************************* //
