/*--------------------------------*- C++ -*----------------------------------*\
| =========                 |                                                 |
| \\      /  F ield         | OpenFOAM: The Open Source CFD Toolbox           |
|  \\    /   O peration     | Version:  5.0                                   |
|   \\  /    A nd           | Web:      www.OpenFOAM.org                      |
|    \\/     M anipulation  |                                                 |
\*---------------------------------------------------------------------------*/
FoamFile
{
    version     2.0;
    format      ascii;
    class       volScalarField;
    location    "0/A1";
    object      Cz;
}
// * * * * * * * * * * * * * * * * * * * * * * * * * * * * * * * * * * * * * //

dimensions      [0 1 0 0 0 0 0];

internalField   nonuniform List<scalar> 
80
(
-4.75796719229e-23
-5.46084870939e-23
-8.43662006036e-21
8.62446871656e-21
-7.03662067666e-22
7.03662067666e-22
0
0
-2.21399837125e-21
0
0
-8.36905756693e-21
-6.10429892592e-22
6.10429892595e-22
0
3.57880709698e-21
-4.80406449322e-21
0
0
0
2.81910143381e-21
4.08623087112e-21
1.04053088355e-22
5.79054266358e-21
0
-5.17309282039e-22
8.90691341098e-22
2.40976754131e-22
-9.54594122692e-23
0
0
0
0
4.85592231281e-23
1.11505982559e-22
-1.20657401993e-21
0
1.72999011934e-22
4.13997461337e-22
-5.49012461322e-21
1.01602526482e-22
8.04287245095e-21
5.98393998825e-22
4.37733930412e-21
-4.09771853021e-21
0
0
-6.19891536758e-24
4.21231401807e-21
0
-1.02851199688e-20
3.42837332294e-21
2.91402496974e-21
0
0
1.05835265852e-22
-5.06532071441e-23
0
6.69314387753e-21
9.33343948174e-21
-1.26208428309e-20
-3.86807793296e-21
5.73375942416e-21
-1.22467013689e-20
-6.81422194453e-22
6.29931659541e-22
-6.4994221449e-22
6.4994221449e-22
-1.73232206672e-21
-2.21437162628e-22
0
6.50023058718e-22
1.16082377533e-22
1.9752020943e-21
-1.02725469172e-21
0
3.70421485273e-22
-5.3821592698e-23
4.71392621959e-22
-3.83897982767e-21
)
;

boundaryField
{
    back
    {
        type            wedge;
    }
    front
    {
        type            wedge;
    }
    A1_to_c1
    {
        type            calculated;
        value           nonuniform List<scalar> 
22
(
-2.62923807259e-22
-3.01764824244e-22
-4.00047640137e-21
4.00047640137e-21
0
0
0
0
0
0
0
0
5.3054466774e-22
5.98832595266e-22
0
0
0
0
0
0
-3.64548532139e-21
3.64548532139e-21
)
;
    }
}


// ************************************************************************* //
