/*--------------------------------*- C++ -*----------------------------------*\
| =========                 |                                                 |
| \\      /  F ield         | OpenFOAM: The Open Source CFD Toolbox           |
|  \\    /   O peration     | Version:  5.0                                   |
|   \\  /    A nd           | Web:      www.OpenFOAM.org                      |
|    \\/     M anipulation  |                                                 |
\*---------------------------------------------------------------------------*/
FoamFile
{
    version     2.0;
    format      ascii;
    class       volVectorField;
    location    "0/c1";
    object      C;
}
// * * * * * * * * * * * * * * * * * * * * * * * * * * * * * * * * * * * * * //

dimensions      [0 1 0 0 0 0 0];

internalField   nonuniform List<vector> 
132
(
(0.0204862596407 0.00594158038366 0)
(0.00993416106691 -0.0059474671998 0)
(0.0204861671067 -0.00594161071056 0)
(0.00993656584718 0.00594631325107 0)
(0.0208215017259 0.00694487869071 -1.26002965176e-21)
(0.00960572515731 -0.0069405043087 5.91135006814e-23)
(0.0208214099258 -0.00694491006258 0)
(0.00960817220859 0.00693928245781 -4.94110206753e-23)
(0.0195752874402 0.00561132436676 -5.97271517786e-21)
(0.0108436993262 -0.00560798091976 -4.99354859769e-23)
(0.0195751927983 -0.00561135461158 6.88460613834e-22)
(0.010845999318 0.00560686872323 -4.97418000367e-22)
(0.0106667800774 -0.0080368299278 1.29940484429e-21)
(0.0197435874364 0.00804474450602 0)
(0.0197434931912 -0.00804477761237 8.4353985384e-21)
(0.0106690996703 0.00803558304109 0)
(0.0204894316574 -0.00791700621285 1.03065088657e-22)
(0.00993328643432 0.00790237511269 -5.68007450579e-22)
(0.0099308812399 -0.00790364073841 6.14758656594e-22)
(0.0204895241842 0.00791697358708 -1.17918294957e-21)
(0.018734439903 0.00598834045121 -4.61173308876e-22)
(0.0117107383436 -0.00595614617981 5.09561732122e-22)
(0.018733093383 -0.00598881842261 5.60587714015e-22)
(0.0116882414344 0.00598000691201 -4.67988853243e-23)
(0.0184756563721 0.0068079207137 -9.67214233843e-23)
(0.0119748643042 -0.00678313641652 -4.64180844796e-22)
(0.0184744437442 -0.00680834322605 -1.15260508366e-20)
(0.0119548574529 0.00680862096446 2.59073670782e-21)
(0.0189130915121 0.00903662500248 0)
(0.0115039670588 -0.00902676989159 0)
(0.0115039670588 0.00902676989159 0)
(0.0189130915121 -0.00903662500248 0)
(0.0189054078078 0.00756171546638 0)
(0.0115147955701 -0.00756247662275 -1.03441685298e-21)
(0.018905452936 -0.00756167516871 -8.08097073122e-21)
(0.011519300177 0.00756264047568 5.39058915288e-22)
(0.0184773258915 0.00957337276294 -6.89708893243e-22)
(0.0119447300966 -0.00956525087539 4.60255695762e-22)
(0.0119447300966 0.00956525087539 2.09572559877e-21)
(0.0184773258915 -0.00957337276294 -9.65521061466e-24)
(0.0168566015339 -0.009486092396 1.06177481051e-22)
(0.0135582814775 0.00948139596332 -4.66013929004e-23)
(0.0162054902828 0.00551425267722 5.88756201535e-21)
(0.0142110315699 -0.00550981327463 0)
(0.0161956784406 -0.00551759395515 0)
(0.0142206793483 0.00551345662736 3.16297172211e-21)
(0.0168654322256 0.00948866282853 -6.79851660967e-21)
(0.0135519155751 -0.00948481682609 4.58592101945e-22)
(0.0147807789838 -0.00593255505887 8.01967354686e-21)
(0.0156292364524 0.00597045253311 -8.01227510478e-22)
(0.0174654116409 -0.00905789755952 1.08108154386e-22)
(0.0129433719437 0.009049172057 4.10475476795e-24)
(0.0147990269867 0.00596610371095 0)
(0.0156106920504 -0.00594428785082 -1.14970827068e-20)
(0.016996709662 0.00748900479486 5.50098298228e-21)
(0.0134157954508 -0.00748752537991 0)
(0.016108876082 0.0075157375605 -8.0119138798e-22)
(0.0143058211227 -0.00751482608429 -6.84087100805e-21)
(0.0174740903749 0.00906050323235 8.1404687362e-21)
(0.0129368527283 -0.00905258444046 -3.57931702536e-21)
(0.0169784768406 -0.00748969093953 1.08891647582e-20)
(0.0134342267749 0.0074889876904 0)
(0.0143320391701 0.00751459776551 -4.04105915555e-22)
(0.0160801737311 -0.00751687713374 7.07361749435e-22)
(0.021071721366 0.00896939802206 1.5494827257e-21)
(0.00933554413665 -0.00896861087631 5.18352452605e-22)
(0.00933554413666 0.00896861087631 1.57982005444e-21)
(0.021071721366 -0.00896939802206 -1.76184492833e-21)
(0.017831612487 0.00537465603016 6.19092663162e-21)
(0.0126094551845 -0.00535258439853 3.641054793e-21)
(0.0178303318395 -0.00537509719087 1.01040567161e-21)
(0.0125856532423 0.00537681216472 0)
(0.0152130160245 0.00963643692792 -9.09421570089e-22)
(0.0152063607002 -0.00963701456433 -5.75904527332e-21)
(0.00993340008976 0.00963518393344 -1.57021246043e-21)
(0.0204850962687 -0.00963613272995 -1.39643758298e-21)
(0.00993340008975 -0.00963518393344 1.12376061375e-22)
(0.0204850962687 0.00963613272995 -1.86094273581e-21)
(0.0170833140911 -0.00588996757414 -1.06400717196e-21)
(0.013327563871 0.00589348433337 5.50363086732e-22)
(0.0174015162414 -0.00671417251999 1.28248273047e-22)
(0.0130153557512 0.00671512831416 2.66087739111e-22)
(0.0170941784637 0.00588615733674 -8.20106560149e-22)
(0.0133407475728 -0.0058657040264 -5.51699498217e-23)
(0.0156947500866 0.00830724583175 8.37926705117e-21)
(0.0147248491904 -0.00830578674291 1.04112284962e-22)
(0.0174121349051 0.00671031958879 1.03557221518e-21)
(0.0130265505095 -0.00668560827985 -6.76630665352e-22)
(0.0147479771316 0.00830163381087 2.61471443361e-22)
(0.015669091528 -0.00830538787254 -1.04554163564e-22)
(0.0159819299091 0.00912251965546 -5.20863228635e-22)
(0.014431776686 -0.00912496779866 2.55230930742e-21)
(0.0144447808933 0.00912111440247 2.97332728328e-22)
(0.0159663582575 -0.00912038147909 9.33187437061e-22)
(0.018329303805 0.00819004366852 1.11183616421e-22)
(0.0120818389328 -0.00818687752286 -9.48818709284e-21)
(0.0183294474237 -0.00818996865031 -7.29417461999e-24)
(0.0120840554441 0.00818819410366 -6.11589608813e-22)
(0.0174743237252 -0.00820882705284 6.13076102108e-21)
(0.0129369866227 0.00821290555987 0)
(0.0106692092812 -0.0090971642582 1.98109996597e-21)
(0.0197390772739 0.00909927883715 -1.85431352011e-21)
(0.0106692092812 0.0090971642582 -6.81733287114e-22)
(0.0197390772739 -0.00909927883715 1.85016950658e-21)
(0.0174828532236 0.00821161835173 -5.23620451134e-21)
(0.0129283230799 -0.00821492430362 -1.98407456936e-21)
(0.0148053994246 0.00682134186605 2.65173163323e-21)
(0.0156069316983 -0.00678841901921 0)
(0.0156354374181 0.00681409356142 4.85368269217e-23)
(0.0147769144971 -0.00678831237143 1.67185482166e-21)
(0.0207352232979 0.00399999999999 0)
(0.021068501543 0.00299999999998 7.85167904098e-22)
(0.021068501543 -0.00300000000001 0)
(0.021068501543 0.000999999999981 0)
(0.0093389301029 0.00100000000002 0)
(0.0207352232979 -1.51761901212e-14 0)
(0.00967204549722 1.50461580607e-14 0)
(0.00967204549722 0.004 0)
(0.0093389301029 0.00300000000001 0)
(0.0093389301029 0.00500000000001 4.64113255302e-22)
(0.0093389301029 -0.00499999999999 4.38275221415e-22)
(0.00967204549722 -0.00199999999999 0)
(0.021068501543 0.00499999999999 1.66261843359e-21)
(0.00967204549722 0.00200000000001 -4.5470910317e-22)
(0.0207352232979 -0.00200000000001 -1.58484064406e-21)
(0.0207352232979 -0.004 7.9242032202e-22)
(0.021068501543 -0.00100000000002 0)
(0.0207352232979 0.00199999999999 8.3907967062e-22)
(0.00967204549722 -0.00399999999999 -4.29498045838e-22)
(0.0093389301029 -0.000999999999982 0)
(0.0093389301029 -0.00299999999998 0)
(0.021068501543 -0.00500000000001 8.31309216804e-22)
)
;

boundaryField
{
    back
    {
        type            wedge;
    }
    front
    {
        type            wedge;
    }
    c1_to_A1
    {
        type            calculated;
        value           nonuniform List<vector> 
22
(
(0.0126193901383 0.005 0)
(0.0126193901383 -0.005 0)
(0.0178133874461 -0.005 8.00095280275e-21)
(0.0178133874461 0.005 -4.00047640137e-21)
(0.0108892922381 -0.005 0)
(0.0108892922381 0.005 0)
(0.00999961923064 -0.00399999999999 0)
(0.00999961923064 0.004 0)
(0.00999961923064 1.00000732037e-14 0)
(0.016081637522 -0.005 0)
(0.016081637522 0.005 0)
(0.0203992232305 -1.00000562632e-14 0)
(0.0143502545991 0.005 0)
(0.0143502545991 -0.005 0)
(0.0203992232305 -0.002 0)
(0.0203992232305 0.00199999999999 0)
(0.0203992232305 0.00399999999999 0)
(0.0203992232305 -0.004 0)
(0.00999961923064 0.002 0)
(0.00999961923064 -0.00199999999999 0)
(0.0195454066715 -0.005 3.64548532139e-21)
(0.0195454066715 0.005 -7.29097064277e-21)
)
;
    }
    c1_to_fluid
    {
        type            calculated;
        value           nonuniform List<vector> 
34
(
(0.0213991851536 0.00699999999999 0)
(0.00899965730758 -0.00699999999999 0)
(0.0213991851536 -0.007 0)
(0.00899965730758 0.007 0)
(0.0187560947413 0.01 -5.38003650442e-22)
(0.0116791304409 -0.01 0)
(0.011679130441 0.01 2.60891683916e-22)
(0.0187560947412 -0.01 -3.12615537734e-21)
(0.0169861898134 -0.01 5.94158913618e-22)
(0.0134475325192 0.01 -2.63721605564e-22)
(0.0169861898135 0.01 7.67588945321e-21)
(0.0134475325192 -0.01 2.59436065663e-21)
(0.0213991851536 0.009 0)
(0.00899965730758 -0.009 0)
(0.00899965730758 0.009 0)
(0.0213991851536 -0.009 0)
(0.0152166242991 0.01 -5.11580455243e-21)
(0.0152166242991 -0.01 3.98642728943e-21)
(0.00991178882885 0.01 2.57047570699e-22)
(0.0205262511565 -0.01 -6.79303347459e-21)
(0.00991178882885 -0.01 3.07641060804e-22)
(0.0205262511565 0.01 6.79303347459e-21)
(0.0213991851536 0.00299999999998 0)
(0.0213991851536 -0.00300000000001 0)
(0.0213991851536 0.000999999999977 0)
(0.00899965730758 0.00100000000002 0)
(0.00899965730758 0.00300000000001 0)
(0.00899965730758 0.00500000000001 0)
(0.00899965730758 -0.00499999999998 0)
(0.0213991851536 0.00499999999998 0)
(0.0213991851536 -0.00100000000002 0)
(0.00899965730758 -0.000999999999977 0)
(0.00899965730758 -0.00299999999998 0)
(0.0213991851536 -0.00500000000001 0)
)
;
    }
}


// ************************************************************************* //
