/*--------------------------------*- C++ -*----------------------------------*\
| =========                 |                                                 |
| \\      /  F ield         | OpenFOAM: The Open Source CFD Toolbox           |
|  \\    /   O peration     | Version:  5.0                                   |
|   \\  /    A nd           | Web:      www.OpenFOAM.org                      |
|    \\/     M anipulation  |                                                 |
\*---------------------------------------------------------------------------*/
FoamFile
{
    version     2.0;
    format      ascii;
    class       volScalarField;
    location    "0/c1";
    object      Cx;
}
// * * * * * * * * * * * * * * * * * * * * * * * * * * * * * * * * * * * * * //

dimensions      [0 1 0 0 0 0 0];

internalField   nonuniform List<scalar> 
132
(
0.0204862596407
0.00993416106691
0.0204861671067
0.00993656584718
0.0208215017259
0.00960572515731
0.0208214099258
0.00960817220859
0.0195752874402
0.0108436993262
0.0195751927983
0.010845999318
0.0106667800774
0.0197435874364
0.0197434931912
0.0106690996703
0.0204894316574
0.00993328643432
0.0099308812399
0.0204895241842
0.018734439903
0.0117107383436
0.018733093383
0.0116882414344
0.0184756563721
0.0119748643042
0.0184744437442
0.0119548574529
0.0189130915121
0.0115039670588
0.0115039670588
0.0189130915121
0.0189054078078
0.0115147955701
0.018905452936
0.011519300177
0.0184773258915
0.0119447300966
0.0119447300966
0.0184773258915
0.0168566015339
0.0135582814775
0.0162054902828
0.0142110315699
0.0161956784406
0.0142206793483
0.0168654322256
0.0135519155751
0.0147807789838
0.0156292364524
0.0174654116409
0.0129433719437
0.0147990269867
0.0156106920504
0.016996709662
0.0134157954508
0.016108876082
0.0143058211227
0.0174740903749
0.0129368527283
0.0169784768406
0.0134342267749
0.0143320391701
0.0160801737311
0.021071721366
0.00933554413665
0.00933554413666
0.021071721366
0.017831612487
0.0126094551845
0.0178303318395
0.0125856532423
0.0152130160245
0.0152063607002
0.00993340008976
0.0204850962687
0.00993340008975
0.0204850962687
0.0170833140911
0.013327563871
0.0174015162414
0.0130153557512
0.0170941784637
0.0133407475728
0.0156947500866
0.0147248491904
0.0174121349051
0.0130265505095
0.0147479771316
0.015669091528
0.0159819299091
0.014431776686
0.0144447808933
0.0159663582575
0.018329303805
0.0120818389328
0.0183294474237
0.0120840554441
0.0174743237252
0.0129369866227
0.0106692092812
0.0197390772739
0.0106692092812
0.0197390772739
0.0174828532236
0.0129283230799
0.0148053994246
0.0156069316983
0.0156354374181
0.0147769144971
0.0207352232979
0.021068501543
0.021068501543
0.021068501543
0.0093389301029
0.0207352232979
0.00967204549722
0.00967204549722
0.0093389301029
0.0093389301029
0.0093389301029
0.00967204549722
0.021068501543
0.00967204549722
0.0207352232979
0.0207352232979
0.021068501543
0.0207352232979
0.00967204549722
0.0093389301029
0.0093389301029
0.021068501543
)
;

boundaryField
{
    back
    {
        type            wedge;
    }
    front
    {
        type            wedge;
    }
    c1_to_A1
    {
        type            calculated;
        value           nonuniform List<scalar> 
22
(
0.0126193901383
0.0126193901383
0.0178133874461
0.0178133874461
0.0108892922381
0.0108892922381
0.00999961923064
0.00999961923064
0.00999961923064
0.016081637522
0.016081637522
0.0203992232305
0.0143502545991
0.0143502545991
0.0203992232305
0.0203992232305
0.0203992232305
0.0203992232305
0.00999961923064
0.00999961923064
0.0195454066715
0.0195454066715
)
;
    }
    c1_to_fluid
    {
        type            calculated;
        value           nonuniform List<scalar> 
34
(
0.0213991851536
0.00899965730758
0.0213991851536
0.00899965730758
0.0187560947413
0.0116791304409
0.011679130441
0.0187560947412
0.0169861898134
0.0134475325192
0.0169861898135
0.0134475325192
0.0213991851536
0.00899965730758
0.00899965730758
0.0213991851536
0.0152166242991
0.0152166242991
0.00991178882885
0.0205262511565
0.00991178882885
0.0205262511565
0.0213991851536
0.0213991851536
0.0213991851536
0.00899965730758
0.00899965730758
0.00899965730758
0.00899965730758
0.0213991851536
0.0213991851536
0.00899965730758
0.00899965730758
0.0213991851536
)
;
    }
}


// ************************************************************************* //
