/*--------------------------------*- C++ -*----------------------------------*\
| =========                 |                                                 |
| \\      /  F ield         | OpenFOAM: The Open Source CFD Toolbox           |
|  \\    /   O peration     | Version:  5.0                                   |
|   \\  /    A nd           | Web:      www.OpenFOAM.org                      |
|    \\/     M anipulation  |                                                 |
\*---------------------------------------------------------------------------*/
FoamFile
{
    version     2.0;
    format      ascii;
    class       volScalarField;
    location    "0/c1";
    object      Cy;
}
// * * * * * * * * * * * * * * * * * * * * * * * * * * * * * * * * * * * * * //

dimensions      [0 1 0 0 0 0 0];

internalField   nonuniform List<scalar> 
132
(
0.00594158038366
-0.0059474671998
-0.00594161071056
0.00594631325107
0.00694487869071
-0.0069405043087
-0.00694491006258
0.00693928245781
0.00561132436676
-0.00560798091976
-0.00561135461158
0.00560686872323
-0.0080368299278
0.00804474450602
-0.00804477761237
0.00803558304109
-0.00791700621285
0.00790237511269
-0.00790364073841
0.00791697358708
0.00598834045121
-0.00595614617981
-0.00598881842261
0.00598000691201
0.0068079207137
-0.00678313641652
-0.00680834322605
0.00680862096446
0.00903662500248
-0.00902676989159
0.00902676989159
-0.00903662500248
0.00756171546638
-0.00756247662275
-0.00756167516871
0.00756264047568
0.00957337276294
-0.00956525087539
0.00956525087539
-0.00957337276294
-0.009486092396
0.00948139596332
0.00551425267722
-0.00550981327463
-0.00551759395515
0.00551345662736
0.00948866282853
-0.00948481682609
-0.00593255505887
0.00597045253311
-0.00905789755952
0.009049172057
0.00596610371095
-0.00594428785082
0.00748900479486
-0.00748752537991
0.0075157375605
-0.00751482608429
0.00906050323235
-0.00905258444046
-0.00748969093953
0.0074889876904
0.00751459776551
-0.00751687713374
0.00896939802206
-0.00896861087631
0.00896861087631
-0.00896939802206
0.00537465603016
-0.00535258439853
-0.00537509719087
0.00537681216472
0.00963643692792
-0.00963701456433
0.00963518393344
-0.00963613272995
-0.00963518393344
0.00963613272995
-0.00588996757414
0.00589348433337
-0.00671417251999
0.00671512831416
0.00588615733674
-0.0058657040264
0.00830724583175
-0.00830578674291
0.00671031958879
-0.00668560827985
0.00830163381087
-0.00830538787254
0.00912251965546
-0.00912496779866
0.00912111440247
-0.00912038147909
0.00819004366852
-0.00818687752286
-0.00818996865031
0.00818819410366
-0.00820882705284
0.00821290555987
-0.0090971642582
0.00909927883715
0.0090971642582
-0.00909927883715
0.00821161835173
-0.00821492430362
0.00682134186605
-0.00678841901921
0.00681409356142
-0.00678831237143
0.00399999999999
0.00299999999998
-0.00300000000001
0.000999999999981
0.00100000000002
-1.51761901212e-14
1.50461580607e-14
0.004
0.00300000000001
0.00500000000001
-0.00499999999999
-0.00199999999999
0.00499999999999
0.00200000000001
-0.00200000000001
-0.004
-0.00100000000002
0.00199999999999
-0.00399999999999
-0.000999999999982
-0.00299999999998
-0.00500000000001
)
;

boundaryField
{
    back
    {
        type            wedge;
    }
    front
    {
        type            wedge;
    }
    c1_to_A1
    {
        type            calculated;
        value           nonuniform List<scalar> 
22
(
0.005
-0.005
-0.005
0.005
-0.005
0.005
-0.00399999999999
0.004
1.00000732037e-14
-0.005
0.005
-1.00000562632e-14
0.005
-0.005
-0.002
0.00199999999999
0.00399999999999
-0.004
0.002
-0.00199999999999
-0.005
0.005
)
;
    }
    c1_to_fluid
    {
        type            calculated;
        value           nonuniform List<scalar> 
34
(
0.00699999999999
-0.00699999999999
-0.007
0.007
0.01
-0.01
0.01
-0.01
-0.01
0.01
0.01
-0.01
0.009
-0.009
0.009
-0.009
0.01
-0.01
0.01
-0.01
-0.01
0.01
0.00299999999998
-0.00300000000001
0.000999999999977
0.00100000000002
0.00300000000001
0.00500000000001
-0.00499999999998
0.00499999999998
-0.00100000000002
-0.000999999999977
-0.00299999999998
-0.00500000000001
)
;
    }
}


// ************************************************************************* //
