/*--------------------------------*- C++ -*----------------------------------*\
| =========                 |                                                 |
| \\      /  F ield         | OpenFOAM: The Open Source CFD Toolbox           |
|  \\    /   O peration     | Version:  5.0                                   |
|   \\  /    A nd           | Web:      www.OpenFOAM.org                      |
|    \\/     M anipulation  |                                                 |
\*---------------------------------------------------------------------------*/
FoamFile
{
    version     2.0;
    format      ascii;
    class       volScalarField;
    location    "0/c1";
    object      Cz;
}
// * * * * * * * * * * * * * * * * * * * * * * * * * * * * * * * * * * * * * //

dimensions      [0 1 0 0 0 0 0];

internalField   nonuniform List<scalar> 
132
(
0
0
0
0
-1.26002965176e-21
5.91135006814e-23
0
-4.94110206753e-23
-5.97271517786e-21
-4.99354859769e-23
6.88460613834e-22
-4.97418000367e-22
1.29940484429e-21
0
8.4353985384e-21
0
1.03065088657e-22
-5.68007450579e-22
6.14758656594e-22
-1.17918294957e-21
-4.61173308876e-22
5.09561732122e-22
5.60587714015e-22
-4.67988853243e-23
-9.67214233843e-23
-4.64180844796e-22
-1.15260508366e-20
2.59073670782e-21
0
0
0
0
0
-1.03441685298e-21
-8.08097073122e-21
5.39058915288e-22
-6.89708893243e-22
4.60255695762e-22
2.09572559877e-21
-9.65521061466e-24
1.06177481051e-22
-4.66013929004e-23
5.88756201535e-21
0
0
3.16297172211e-21
-6.79851660967e-21
4.58592101945e-22
8.01967354686e-21
-8.01227510478e-22
1.08108154386e-22
4.10475476795e-24
0
-1.14970827068e-20
5.50098298228e-21
0
-8.0119138798e-22
-6.84087100805e-21
8.1404687362e-21
-3.57931702536e-21
1.08891647582e-20
0
-4.04105915555e-22
7.07361749435e-22
1.5494827257e-21
5.18352452605e-22
1.57982005444e-21
-1.76184492833e-21
6.19092663162e-21
3.641054793e-21
1.01040567161e-21
0
-9.09421570089e-22
-5.75904527332e-21
-1.57021246043e-21
-1.39643758298e-21
1.12376061375e-22
-1.86094273581e-21
-1.06400717196e-21
5.50363086732e-22
1.28248273047e-22
2.66087739111e-22
-8.20106560149e-22
-5.51699498217e-23
8.37926705117e-21
1.04112284962e-22
1.03557221518e-21
-6.76630665352e-22
2.61471443361e-22
-1.04554163564e-22
-5.20863228635e-22
2.55230930742e-21
2.97332728328e-22
9.33187437061e-22
1.11183616421e-22
-9.48818709284e-21
-7.29417461999e-24
-6.11589608813e-22
6.13076102108e-21
0
1.98109996597e-21
-1.85431352011e-21
-6.81733287114e-22
1.85016950658e-21
-5.23620451134e-21
-1.98407456936e-21
2.65173163323e-21
0
4.85368269217e-23
1.67185482166e-21
0
7.85167904098e-22
0
0
0
0
0
0
0
4.64113255302e-22
4.38275221415e-22
0
1.66261843359e-21
-4.5470910317e-22
-1.58484064406e-21
7.9242032202e-22
0
8.3907967062e-22
-4.29498045838e-22
0
0
8.31309216804e-22
)
;

boundaryField
{
    back
    {
        type            wedge;
    }
    front
    {
        type            wedge;
    }
    c1_to_A1
    {
        type            calculated;
        value           nonuniform List<scalar> 
22
(
0
0
8.00095280275e-21
-4.00047640137e-21
0
0
0
0
0
0
0
0
0
0
0
0
0
0
0
0
3.64548532139e-21
-7.29097064277e-21
)
;
    }
    c1_to_fluid
    {
        type            calculated;
        value           nonuniform List<scalar> 
34
(
0
0
0
0
-5.38003650442e-22
0
2.60891683916e-22
-3.12615537734e-21
5.94158913618e-22
-2.63721605564e-22
7.67588945321e-21
2.59436065663e-21
0
0
0
0
-5.11580455243e-21
3.98642728943e-21
2.57047570699e-22
-6.79303347459e-21
3.07641060804e-22
6.79303347459e-21
0
0
0
0
0
0
0
0
0
0
0
0
)
;
    }
}


// ************************************************************************* //
