/*--------------------------------*- C++ -*----------------------------------*\
| =========                 |                                                 |
| \\      /  F ield         | OpenFOAM: The Open Source CFD Toolbox           |
|  \\    /   O peration     | Version:  5.0                                   |
|   \\  /    A nd           | Web:      www.OpenFOAM.org                      |
|    \\/     M anipulation  |                                                 |
\*---------------------------------------------------------------------------*/
FoamFile
{
    version     2.0;
    format      ascii;
    class       volScalarField;
    location    "15000/core";
    object      T;
}
// * * * * * * * * * * * * * * * * * * * * * * * * * * * * * * * * * * * * * //

dimensions      [0 0 0 1 0 0 0];

internalField   nonuniform List<scalar> 
618
(
349.71454691
349.602051866
349.516302492
349.639103919
349.781907529
349.698188736
349.681666684
349.765790616
349.590530069
349.571861497
349.625808091
349.507039226
349.465940072
349.715057308
349.699112768
349.494592346
349.985053632
349.985630994
349.98937545
349.989178483
349.429659914
349.427270707
349.401030999
349.185872631
349.338982393
349.117455043
349.83370555
349.775810269
345.278987991
347.160465985
347.324607234
344.895187153
345.558658545
349.352782064
349.329237646
329.24504226
329.333040578
329.455320271
345.19652861
349.141165206
349.105961953
349.924188578
349.900205706
346.916121607
347.098339977
348.020988053
348.132432041
349.053635702
348.908013126
348.712798415
348.709754784
348.930251179
348.756507727
349.639803015
349.625209112
348.119675443
348.012891309
348.558061697
348.547269957
347.86486034
347.737245474
349.32321426
349.312614295
329.352202537
349.593707999
349.594173209
349.95893737
349.968452472
348.395518147
348.482324147
345.648848959
349.38616134
349.293660612
345.891168971
349.141151712
349.136424108
349.538601084
349.587177125
349.949530614
349.93001634
349.504912471
349.431259949
344.947466031
349.301630878
349.296482947
349.141887798
348.747028213
349.793630374
349.803079255
345.229068721
349.78479899
349.789130359
344.736592299
349.85718771
349.811971988
349.886162189
349.889633059
342.794162839
347.942733592
347.821674197
348.404276279
348.492547516
341.310553744
345.033167567
342.082723878
329.483016224
330.286816712
330.402585209
331.701326557
331.742570704
333.707236502
333.633305704
336.291953203
336.102602766
339.461478967
339.155085257
343.197722642
329.31666724
341.566426356
337.901704287
338.064181451
335.14035343
335.075950411
332.831509578
332.797777813
331.033383555
331.16205802
329.879783457
330.052759738
329.224253814
342.255310785
338.600698644
331.176997211
338.578609428
335.528505381
335.663599639
333.062848252
333.30614084
329.896415049
330.289454718
331.52338495
349.707764449
349.62197419
349.631879534
349.638477777
347.089703213
347.255949883
348.639295085
348.71039822
349.457690215
349.504905481
329.35382152
329.56861915
349.913542816
349.927466907
347.590706689
347.452989798
349.107413876
348.722953345
347.699465726
347.555528082
343.246712417
329.12909241
346.703001022
349.684366836
349.720290284
349.544170247
349.375681656
346.891847394
349.192455095
348.868650465
349.462877243
349.448883417
346.455195404
340.8310625
329.580317438
330.452498616
330.48843212
331.932962896
331.881348625
334.002933963
333.83772129
336.652458113
336.374439955
339.882372078
339.496880344
343.617720799
329.323111826
341.179747697
337.487728107
337.747180884
334.730185922
334.88842989
332.553748536
332.610242546
330.952306304
330.913840352
329.826012363
346.636857092
329.244553291
349.459161692
349.222732766
348.604016535
348.25519969
348.350804637
348.770313718
348.189253306
348.170739993
348.220061024
348.357094607
347.443514571
347.627660621
347.80356468
347.954731027
348.885362294
348.84807562
346.384361583
345.090807435
346.600267322
348.789149108
348.440393811
348.390212721
348.308948137
349.578712869
349.38963926
347.774923474
347.920470299
329.896560755
348.817395951
348.882052376
345.38164425
349.762642445
349.664044716
343.192815347
348.962542071
348.677848776
349.838046197
349.76497195
349.868970374
349.835211135
348.505336876
348.588882768
348.127823222
348.019332246
347.694430564
347.825894628
349.184932414
349.130949493
348.578962875
348.65613901
329.280989791
346.42785971
349.338849734
349.075417087
349.583665101
349.41836467
342.902398545
348.484394605
348.474686885
343.318781936
343.620387561
349.658144905
349.569096131
346.631629024
348.626875021
348.560898856
349.459932498
349.236897578
348.920330898
348.991140852
341.263037141
340.964483309
349.283170526
349.102991889
349.160913037
348.877646275
349.436219425
349.297754142
348.872006267
348.648302077
329.386468811
329.485531968
341.313734428
337.806779392
339.313256455
337.888122972
334.908523641
336.29047475
331.652593193
330.841126472
339.489882361
332.590197163
337.650267407
335.078744578
332.849238065
336.248432521
331.191952474
336.555193356
333.682706808
333.763018603
329.721417848
339.793855983
330.204198579
331.854790691
330.525263653
333.906493011
331.836311921
334.791890769
337.623842485
341.103503708
336.4401564
339.550965969
331.957837168
330.810408546
332.513618021
331.062803995
332.674901063
334.859254993
330.349819141
333.909812822
329.728920622
330.580333405
329.189359223
329.232703793
349.833324993
349.856772312
348.600712394
348.768844147
349.704773927
349.745324323
349.064729555
349.11524835
348.370836312
348.323377429
349.934436151
349.908044165
349.087671555
348.753827538
348.454043021
348.652726316
348.724291322
348.476605011
348.250799197
348.195590958
348.317275321
348.3051682
347.529113351
347.371597584
349.708715351
349.573488551
349.535548652
349.315334992
349.668531073
349.735551316
349.8857256
349.854663481
349.615473381
349.5371218
349.923752743
349.893095564
330.062689273
329.984421521
348.55284468
348.473989257
349.970457532
349.978877461
348.007365591
348.112843203
349.410516437
349.435349601
349.895103749
349.845720585
349.941481766
349.92747065
349.902092299
349.861279741
348.634293543
348.587970763
349.821470659
349.872675195
349.580308176
349.552346172
348.994310279
348.761617401
349.769762168
349.783397765
349.122468996
348.859783247
348.209803534
348.108039104
349.844451538
349.849774571
348.61739178
348.321719348
348.649937913
348.76165076
348.18606402
348.198154433
348.93383966
348.536641387
349.20062557
349.234874923
347.433173425
347.259650916
348.299773508
348.503411855
348.009178322
348.09651719
349.635731394
349.573723191
349.89840909
349.906193179
349.910503157
349.93613643
348.362478333
348.297268201
348.91690519
348.872268536
349.366919715
349.055986644
349.381334192
349.190743587
349.197838878
349.044868184
349.472768499
349.361016334
349.104304008
348.990004504
348.774959554
348.756933943
349.534414381
349.410042287
348.869641878
348.888997579
348.434473171
348.354336672
349.952639723
349.966099758
349.340897411
349.219015237
349.668424561
349.728328161
348.980763682
348.964779142
349.163132287
349.258118892
349.874297382
349.872375784
349.793787211
349.731621657
329.327663453
347.000617085
347.165195223
349.472029135
349.461400925
349.076965987
349.055518617
349.944285584
349.956910506
349.231427832
349.193573076
349.103467748
349.056010745
349.293110893
348.966548847
341.878938084
330.156601366
333.323428739
331.440797498
338.830436597
330.050115196
335.787283654
333.049621327
331.277056464
338.354198191
335.409322691
342.396830451
329.467875562
349.662022228
349.50559664
349.333788835
349.298044195
349.844654519
349.82544749
349.86630058
349.837154475
349.784454119
349.784230643
329.276127516
348.396522208
348.315234009
348.795255978
348.841254307
343.005009426
349.270268327
349.30843316
349.815889806
349.732976567
329.302730059
349.160620745
348.970989668
348.776865075
348.71532993
349.02382262
348.977281806
349.264761411
349.056372918
348.854010873
348.957615063
340.94511077
329.902743127
332.759766824
331.028599594
335.073298261
332.580929986
330.410437197
333.887073992
333.661061941
331.735208732
330.372807044
337.966989707
330.95661135
331.852976249
334.785869532
339.264167743
337.572033997
336.168486118
343.375447212
336.501256039
339.693873577
341.420670035
329.36348191
329.572244019
348.587325421
348.540326556
349.864484903
349.857218818
349.029209956
349.049723258
343.955702337
349.890733506
349.924373616
349.496717565
349.349172324
344.356281635
329.135243653
329.195601173
349.30468837
349.240418866
349.05444862
349.000907156
349.886791563
349.919068807
329.876698554
347.833900743
347.706266906
343.924684466
349.930167037
349.930894652
329.615308593
329.864545007
349.946462943
349.95313405
329.332062518
332.067928962
344.24409047
334.131035589
334.48019333
330.719528429
330.585711882
340.006232222
336.770899538
329.737505771
329.077070194
332.30638079
337.234128791
340.311824012
340.556744082
330.846931536
336.962238689
337.068290469
334.216772954
332.352028188
340.288153251
334.420892937
332.044688087
330.418647931
329.466702386
349.987206744
349.979595474
349.662338696
349.643721211
348.929703789
348.468656645
348.45467211
348.15451707
347.975413329
348.032953116
346.957936469
346.770374102
348.674815386
348.610496727
349.714222151
349.588198457
329.486353231
329.630478011
349.684541666
349.668100418
349.729761974
349.736341719
349.970362057
349.959579024
349.952384064
349.935906328
329.552579693
329.729609807
329.754969967
329.666957074
)
;

boundaryField
{
    back
    {
        type            wedge;
    }
    front
    {
        type            wedge;
    }
    wall_bottom
    {
        type            fixedValue;
        value           uniform 350;
    }
    wall_top
    {
        type            fixedValue;
        value           uniform 350;
    }
    core_to_fluid
    {
        type            compressible::turbulentTemperatureRadCoupledMixed;
        refValue        nonuniform List<scalar> 
56
(
312.982730503
304.418650878
300.247748732
311.981223405
298.77194896
307.043737251
302.708274427
300.652881683
299.976324165
300.354477689
300.22102943
305.494880087
300.346606489
299.449709878
305.148338974
301.870181315
310.841419054
311.563825327
302.058829175
308.385751727
313.667619767
301.241405304
312.648152803
312.228605852
300.158918098
300.120325174
299.874041883
304.353230839
301.747101389
309.957003389
307.165683548
303.97442976
315.320831973
300.385046646
300.514693286
300.637920993
301.011029858
305.304235766
301.641086519
299.672191016
311.304284627
308.597019081
307.674563954
306.757045163
296.620259291
300.942040468
315.290661064
305.895491091
312.196268178
303.216941346
301.491852602
302.929854983
306.243118481
314.8185661
315.797539746
309.654563188
)
;
        refGradient     uniform 0;
        valueFraction   nonuniform List<scalar> 
56
(
0.00241801707971
0.00312634915274
0.00202869984433
0.00185843577108
0.00199033683899
0.00204101125867
0.00199690676677
0.00209652023084
0.00204807375769
0.00166618141508
0.00177777365244
0.00238694731962
0.00273020384439
0.00306335942379
0.0023623193486
0.00224295696938
0.00232139473992
0.00242881832249
0.0021330110573
0.00220646887375
0.00177260530688
0.00223546800593
0.00182564609293
0.00180467234416
0.00224963226264
0.00145934022786
0.0015253144712
0.00166057652001
0.00155675443234
0.00150252393248
0.00160403022915
0.00106263056807
0.00085511242403
0.0011822593865
0.00119519222261
0.00115452464696
0.00110903094253
0.00118383908032
0.00118315150912
0.00117967674627
0.00120856922433
0.00118652984744
0.00115736773832
0.00118180508171
0.00119911422497
0.00119169830299
0.00151735849471
0.00211449071718
0.00136451441052
0.00160559590375
0.00124434845309
0.00118767330654
0.000883271154915
0.00102480495481
0.00124465898764
0.00147322877957
)
;
        value           nonuniform List<scalar> 
56
(
349.054454338
348.608442228
329.165469182
342.199048338
331.11250025
338.514246399
335.462966439
332.994900101
329.835136496
329.305503352
329.077700418
348.501117297
348.124399465
348.201003007
348.667264683
348.085361621
348.084083904
348.131029687
348.258339895
347.357334833
347.567462872
347.699476462
347.89027371
349.299897227
348.945986221
341.81799806
330.004087195
333.001968775
331.231085576
338.311530727
335.36401904
343.913217014
344.331453062
329.580750841
332.03021678
334.092366963
330.552912645
339.965150642
336.729335646
329.042381942
340.276766393
336.928582509
334.186053858
332.014803022
330.378119803
329.432709595
348.878661301
348.378636081
348.405196995
348.082365483
347.917571582
347.979385371
346.921974244
346.737629731
349.672007448
349.529367076
)
;
        Tnbr            T;
        qrNbr           none;
        qr              none;
        thicknessLayers 0();
        kappaLayers     0();
        kappaMethod     solidThermo;
        kappa           none;
        alphaAni        Anialpha;
    }
}


// ************************************************************************* //
