/*--------------------------------*- C++ -*----------------------------------*\
| =========                 |                                                 |
| \\      /  F ield         | OpenFOAM: The Open Source CFD Toolbox           |
|  \\    /   O peration     | Version:  5.0                                   |
|   \\  /    A nd           | Web:      www.OpenFOAM.org                      |
|    \\/     M anipulation  |                                                 |
\*---------------------------------------------------------------------------*/
FoamFile
{
    version     2.0;
    format      ascii;
    class       volScalarField;
    location    "15000/fluid";
    object      p;
}
// * * * * * * * * * * * * * * * * * * * * * * * * * * * * * * * * * * * * * //

dimensions      [1 -1 -2 0 0 0 0];

internalField   nonuniform List<scalar> 
811
(
99547.5885613
99850.2153419
99560.8108837
100202.217449
100228.40168
99277.1096147
99394.7983048
99721.3542038
100230.369443
99356.4054074
99362.8242978
100005.17196
99331.8240962
99835.0632287
99720.6644618
99392.5252307
99433.6960881
100200.229862
99363.4783479
100000.389334
99314.474335
99834.1176801
99439.455667
99977.1452086
99406.9520198
99435.3145753
100155.472929
99367.2924285
99771.557139
99444.1185085
99357.1947946
99761.764817
99799.0508371
99530.7514265
99349.9616558
98950.6410382
99436.8678014
99429.5746541
99423.6976745
99927.4489028
99404.9229327
99961.5452738
99364.7378214
99397.9191151
99743.7815503
99490.0975511
99442.5272426
100215.544837
100226.243463
99876.1105236
100002.382163
99420.6021862
99520.8100508
99818.0369921
99392.0677776
99766.4437247
99179.4479398
99754.8758003
99375.7102541
100027.935375
99429.7135435
99223.8907215
99868.9184228
99412.2908312
99413.5046075
99971.4044366
99380.8007
99748.9816492
99380.7661646
99391.8441154
99728.8035249
99899.3967459
99567.8383687
99317.4385526
99764.2984543
99540.7698979
99812.7058685
99710.678846
99390.2229248
99953.7437846
99374.0253783
99434.4566159
99429.3719215
99425.1235884
99426.6897131
99434.8305216
99893.4537692
99402.298323
99424.3555217
99853.757451
99500.2507584
99429.3530146
99313.4897596
99772.4718259
99432.2716611
99435.5367894
99831.2623578
99538.276222
100203.207883
99824.5810361
99508.9482191
99807.2920142
99487.4195006
99834.5225837
99933.2632168
99304.8511381
99967.3186143
99255.3229247
99422.1297365
99881.6500832
99398.0798037
99561.0429825
99299.3420291
99853.2360046
99353.0465286
99990.1874711
99761.8839538
99390.7147768
99937.8013852
99410.3433475
99769.836163
99364.0635803
99530.3124409
99394.6073672
99731.7880299
100007.999757
99430.1490029
99321.0973223
99852.0762065
100133.542486
99435.2768036
99971.5786099
99396.0198474
99593.633659
100220.24313
99366.0789218
99977.9962188
99350.2290684
99362.6797152
99987.847774
99351.6402605
99799.2284045
99431.7563482
99434.538699
99121.704932
99431.4640386
99426.2539754
99441.5118827
99413.0928689
99432.3984957
99447.2693058
99429.7743268
99121.4402246
99416.5186025
100313.618818
99422.5262175
100094.43097
99430.2523481
99470.8851596
99389.0584009
99679.9165256
99965.1689751
100255.851513
99771.2929141
99391.9214085
99955.0259663
99261.9496239
99245.9315545
100087.156829
100208.363372
99695.848233
99323.9305034
99946.2155816
99949.0351423
100257.624133
99255.7126194
99998.59661
99382.7042295
99762.6340435
100229.201763
99351.6832721
99214.9807472
99942.6447318
99380.3515894
99764.5023772
99997.4527732
99381.0228389
99370.0919919
99346.3102831
99773.9393242
99778.555811
99338.5062341
99810.3844797
99384.7370491
99414.576548
99245.7201533
99950.2547616
99718.6451932
99389.4081153
99241.2621806
99899.584119
100195.906652
99338.8251684
99352.3843789
99802.2606653
99426.2999852
99424.7303965
99423.2779547
99427.4206397
99657.0729423
99923.5402759
99579.921451
100047.907155
99245.614632
99394.2856453
99744.1613672
99547.3491156
99821.9335551
100033.437726
99405.3311592
100244.65013
99365.0972885
99920.2304878
99398.0118811
99850.1574141
99406.8776649
99399.0133459
99717.8106797
99387.913001
99345.9400675
99801.2004575
99305.9843262
99827.6780643
100287.929442
99416.0536616
99852.1169311
99336.7993079
99329.1088924
99861.7563495
99849.3998051
99359.4646506
99786.5101471
99371.0460405
100194.536477
99791.2944602
99353.6608095
99581.5050497
99361.857266
99836.2545692
99432.6636529
100310.073458
100193.97044
99326.5230507
99909.9758107
99556.5828001
99429.9754562
100138.614838
99445.3777843
100185.055862
99318.0755081
99862.7927592
99231.9050369
99843.8458096
99273.8801804
99397.9065977
99881.377627
99436.6026879
100209.945566
99420.6520323
100102.679217
99682.9630675
99354.7357475
99808.9823754
99972.8326005
99391.2495903
99823.873624
99501.1876491
100089.668436
99404.4893693
99341.0987892
99802.2101616
99330.6387821
99820.9441207
100043.444223
99354.2632516
99465.5837752
99860.7912813
99338.5134633
99334.6290725
99771.2278593
99263.0080239
100089.160898
99425.4184559
99426.3889596
99354.2467059
99850.346285
100226.722551
99412.5000475
99829.6750375
99342.9446882
100183.269745
99331.2961827
99388.9957261
99721.1675342
100222.129476
99419.5030602
99812.8511644
99346.4179669
100217.330545
99294.8715987
99776.0680463
99365.3094779
99333.6344209
99773.684953
99355.9774104
99783.7445587
99846.0299966
99336.3711857
99361.6349589
99761.2703258
99263.6317303
99912.0023836
99357.5977368
99789.5163258
99992.0458999
99376.5040779
99504.1296634
100203.478121
99322.2929885
99774.9009633
99346.0421653
99782.5618822
99436.0888645
99757.8941295
99378.5906516
99829.6354929
99351.4917967
99847.2814619
99348.6727507
99323.8975923
99856.0176026
99320.6096571
99854.6597591
99742.5102054
100226.460039
99408.6339469
99801.1182861
99357.6838579
99472.8224787
99839.0589954
99427.4285282
100118.134786
99405.5534538
100211.438237
99421.7397648
99356.6422483
99828.4536214
99312.3249229
100191.701751
99448.8043062
100125.984528
99853.709062
99311.9122092
99330.6336516
99813.0993489
100187.001936
99351.3286113
99820.6620793
99823.8610681
99525.6218585
99531.5108721
100183.142972
99317.6924053
99806.5912239
99387.8023234
99348.7512651
99795.3536975
99418.8572667
100242.771541
99424.7919211
100090.584065
99315.2793682
99795.3252662
99925.937851
99213.8904258
100047.679756
99643.1376519
99349.8303583
100250.646191
99366.5996302
99769.0496217
99710.9862946
99556.5471439
99806.2178079
100192.198849
99386.6642874
99283.6114613
99852.729878
99346.0008392
99802.4731368
100183.387949
99299.0553875
99852.6554203
99335.3393451
99876.2116678
99370.445191
100085.028838
99402.5974378
99799.0025806
99969.5820814
99387.5162198
99389.7943192
99978.3309251
99387.4772846
99402.528942
100235.760677
99432.491425
99506.043747
99863.3900155
99329.0848949
99821.9096401
99743.4186948
99386.1966074
99945.4001146
99245.0274588
99802.408953
99342.6518888
99243.7289349
99867.1874424
100183.30489
99360.5836221
99818.4971482
99514.9485452
99371.0886437
99780.1990326
100187.304579
99352.5322049
99388.0665013
99735.2904708
99597.019792
99976.953264
99853.9884172
99360.849424
99788.0131893
99359.9145473
99757.6168488
99731.4870632
99393.4928493
99413.1731491
100425.8567
99857.4779177
99506.3620442
99378.1123329
99744.7953818
99390.7395128
99849.147056
99724.5487488
99381.8254671
99829.0226797
99433.380008
99860.1539582
99385.8077752
99894.8130183
99204.4044959
99334.1904063
100202.324012
99321.5637905
100200.540281
99392.1578136
99395.4513054
99784.2294967
99517.6550837
100163.742439
99899.777029
99223.0163002
99786.1738603
99385.8673579
99376.1205494
99763.5502886
99384.5761749
99744.4146589
99556.0567623
99839.9343817
99577.0197229
99496.3808207
99392.8329217
99717.247454
99397.4173545
99750.102638
100171.885489
99624.8016423
100261.597563
99373.8836852
99749.5227675
99395.6952968
99212.8635991
99623.2376476
99322.2999314
99818.5228798
99329.5071492
99836.7550588
99696.570171
100159.114668
99567.5157294
99335.8881367
99818.1773575
99425.8828874
100423.815929
99999.6158598
99400.8627528
99407.593333
100094.906419
99963.9246328
99394.1815109
99384.7459648
99705.8794764
99376.5579617
99755.7338434
99391.4860304
99720.3263737
99387.9394748
99736.5358701
99390.0328794
99718.296173
99902.5748545
99223.9565985
99844.9935052
99413.2127049
99332.8291838
99878.5285398
99560.088705
99326.6168666
99800.2396997
99804.5891286
99340.8072653
99259.1022067
99863.8377739
99813.3714917
99394.4960781
99390.4166382
99719.121403
99387.1630302
99709.1683878
99389.9656672
99709.0526314
99390.8996028
99721.925898
99374.3802682
99743.5695353
100034.105775
99231.7891463
100071.275795
99410.304424
99339.5388629
99866.2779114
99256.6192312
99891.7395029
99839.0544762
99538.0560435
99403.2154911
99744.6444911
99883.7730995
99230.3018077
99243.1347937
99926.5343984
99823.8860787
99285.3672621
99386.1926806
99728.9062249
99410.5729619
100134.355838
99397.5071937
99819.4337888
99400.9046126
99968.5175653
99895.1604627
99198.0796285
99821.8923391
99413.3313972
99388.8942484
99715.4296705
99389.8731274
99720.6978021
99391.1583639
99732.1731165
99386.0353978
99723.5781347
99732.3309969
99385.0735804
99833.6287009
99497.8772292
100203.031043
99420.8069522
100078.447797
99376.2566625
99355.3803615
99904.2087972
100211.814045
99746.3894463
99775.7834245
99375.1709097
99368.2483972
99858.9329471
99360.483969
99817.0528101
100098.879173
99682.1498416
99993.0265907
99415.7856198
99879.0931106
100235.217309
99844.5915522
99348.445459
99449.2037904
99830.636082
100185.278967
99324.4401455
99310.5255311
99934.1593217
99817.343405
99307.1042592
100210.279669
99396.4594729
99402.6259532
100286.849169
100127.183852
99318.2656649
99215.8294845
99879.7394538
99953.0063787
99225.8670702
99389.4769352
99722.2738156
99308.6407956
99802.8426434
99336.8184479
99862.0080351
99390.2481586
99720.6881352
99334.6701252
99854.6229945
99330.5293768
99858.6511033
99507.8082408
99811.6336047
99384.9746509
99742.6830696
99993.4321948
99401.9566324
99390.6725926
99720.5965631
100042.73728
99342.071984
99831.054613
99364.6124935
99302.2532576
99831.6837495
99720.0303209
99328.8169196
99854.5942497
99962.1893009
99177.7940437
99810.4968431
99357.3796493
99365.2467354
99955.8511633
99391.5477179
100218.562769
99816.1597548
99842.6756165
99343.7297526
99868.6134754
99266.962833
99418.2353877
100044.908119
99832.8992084
99273.9578166
99323.7949072
99858.3804454
99846.0033616
99353.1613115
99417.2195034
99856.3287164
99324.7029033
99859.3295237
99314.524783
100146.854377
100151.622246
99430.5701716
99344.4593718
99786.4840475
100126.045173
99427.1947025
99846.0307638
99275.9279017
99815.1488765
99348.3287353
99939.3958916
99448.9467851
99820.3968563
99353.0874334
99393.7769371
99832.6377141
99330.3240765
99852.3308619
99797.0343511
99396.9074617
100400.428791
99420.6352425
99339.0875037
99850.0539673
99738.9880712
99386.9016504
99802.897197
99347.4583023
99846.0819182
99537.3056015
99310.5347262
100191.129986
99261.6392123
99870.3518629
99780.1637855
99370.790302
99754.2840206
100225.265556
99324.1291573
100163.95883
99814.1206415
99349.7366823
99986.975399
99416.0034276
99372.7516035
99747.2501288
99802.9459187
99325.2116638
99817.2840249
99304.1963798
99394.2144309
99752.0212434
99856.0108641
99340.1639747
99327.0988136
100203.567502
99898.7312305
100249.318882
99725.8951564
99392.3646982
99324.13275
99855.4162064
100025.88325
99428.3412311
99383.6988666
99725.642133
99350.382966
100201.74446
99267.9065987
99847.2752867
99785.9889051
99426.8060369
100139.982185
99753.4720017
99389.2451655
100203.876947
99817.1580439
99495.7944378
99847.0934972
99532.5217022
99992.3538076
99614.6494261
99463.1456781
99806.5104147
99344.6964078
100193.957876
99733.6887738
99459.9517407
99952.0622124
99400.156299
99318.9620988
100197.927508
100209.832228
99315.7073349
99830.4990108
99427.4159483
99821.2969385
99480.3705101
99339.7564945
100201.355243
100006.602588
99639.4112428
99850.1403151
99478.6589836
99386.6474552
99723.1291699
99963.4935167
99597.9917884
100108.36135
99656.9179969
99920.3182201
99401.972477
99862.27698
99397.312924
99414.1581448
99945.628822
99390.1522095
99712.9373487
99388.8267517
99714.1767566
99295.6694688
98983.8438089
99095.9656996
99999.0781723
)
;

boundaryField
{
    back
    {
        type            wedge;
    }
    front
    {
        type            wedge;
    }
    top_channel
    {
        type            calculated;
        value           nonuniform List<scalar> 4(99340.6956396 99340.6823667 99340.7139814 99340.7335549);
    }
    wall_outer
    {
        type            calculated;
        value           nonuniform List<scalar> 
23
(
99748.9791674
99380.7686584
99299.3401893
99853.2377219
99718.6451013
99389.4082068
99776.0654503
99365.3120615
99724.5476945
99381.8262907
99335.8869441
99818.1784454
99390.0326778
99718.2963754
99388.8935929
99715.4303286
99732.3301577
99385.0745382
99310.5254358
99934.1594176
99295.6694688
99095.9652937
99999.0785701
)
;
    }
    bottom_channel
    {
        type            calculated;
        value           nonuniform List<scalar> 4(100000.318581 100000.334717 100000.298215 100000.277849);
    }
    fluid_to_core
    {
        type            calculated;
        value           nonuniform List<scalar> 
56
(
99415.7816218
99993.0307772
99436.0887253
100203.21081
99657.0722561
99976.952388
99863.3887871
99830.6354302
99465.5836871
99429.5746541
99431.4640099
99402.6219996
100286.853226
100209.951889
99420.6458728
99396.455384
100210.283672
100229.20745
99351.6774574
99879.0886948
100235.221655
99695.8419324
100208.369376
99396.0148755
99971.5844519
99824.5780054
99423.6977634
99449.2044876
99399.0140237
99597.0206975
99506.0450348
99949.0324856
100257.626702
99426.2539754
99427.4272164
99514.9472541
99413.0936667
99682.1491813
99560.0884005
99434.5384404
100098.879828
99878.5284849
99818.4984137
99742.5115047
99530.3116315
99447.2693055
99424.786435
100090.589465
99349.8247546
100250.652078
99504.123781
100203.484018
100255.857871
99965.1628079
99362.6740664
99987.8535406
)
;
    }
    fluid_to_A2
    {
        type            calculated;
        value           nonuniform List<scalar> 
22
(
99338.5005617
99338.8313662
99318.0810521
99329.1032751
99376.2606827
99368.2444185
99433.3796608
99425.8818957
99402.5953492
99326.5286746
99359.4590042
99547.3484841
99360.4800808
99324.4442703
99547.588674
99507.8082415
99556.057566
99496.3808207
99398.0775108
99413.1741212
99318.2694188
99375.1670696
)
;
    }
    fluid_to_mb1
    {
        type            calculated;
        value           nonuniform List<scalar> 10(98983.8438089 98950.6410382 99945.3949947 99868.9130801 100089.156111 99263.0127703 99223.8959575 99245.9362238 100087.152114 99245.0325399);
    }
    fluid_to_A3
    {
        type            calculated;
        value           nonuniform List<scalar> 
22
(
99861.7620443
100185.050133
100195.900252
99778.5616048
100127.179712
99858.9368528
99839.9335729
99577.0199877
99821.9342177
100185.274736
99817.0567556
100085.030858
99849.4056271
100193.964522
100425.855456
99881.6524103
99829.0229876
100423.816903
99811.633608
99850.2153202
100078.443503
99775.7874505
)
;
    }
    fluid_to_c1
    {
        type            calculated;
        value           nonuniform List<scalar> 
34
(
99308.6407965
99444.1184305
99802.8426436
99425.4185354
99329.5118217
99852.1111075
99336.8050299
99836.7502872
99808.9775916
99348.4494641
99354.740449
99844.5875069
99353.6606375
99179.4472202
99424.3562378
99581.5050498
99361.8629773
99836.2487728
99342.9495138
99946.2093981
99829.6701281
99323.9365276
99255.3199304
99967.3215639
99349.9616572
99429.7743013
99426.3889597
99432.3984958
99441.5118826
99241.2623382
99436.8678032
99431.7561185
99439.4555431
99899.5839473
)
;
    }
}


// ************************************************************************* //
