/*--------------------------------*- C++ -*----------------------------------*\
| =========                 |                                                 |
| \\      /  F ield         | OpenFOAM: The Open Source CFD Toolbox           |
|  \\    /   O peration     | Version:  5.0                                   |
|   \\  /    A nd           | Web:      www.OpenFOAM.org                      |
|    \\/     M anipulation  |                                                 |
\*---------------------------------------------------------------------------*/
FoamFile
{
    version     2.0;
    format      ascii;
    class       volScalarField;
    location    "15000/fluid";
    object      T;
}
// * * * * * * * * * * * * * * * * * * * * * * * * * * * * * * * * * * * * * //

dimensions      [0 0 0 1 0 0 0];

internalField   nonuniform List<scalar> 
811
(
312.255617664
301.515554178
299.409751915
296.155725537
295.086147768
300.756540402
294.168671927
293.533286706
296.001218713
300.848728982
296.090842429
293.012084969
293.679705768
293.587385743
293.517926207
293.868173487
299.106703932
296.99256008
298.0546889
293.687669472
293.779581884
293.554361313
305.832702282
293.432231255
296.256142641
300.387447326
293.573696274
294.390687663
293.522333896
303.931420971
294.573084579
293.499586532
296.2027067
299.884145716
301.585090122
294.236222909
294.875101049
300.354477689
299.874041883
293.785697015
296.888668968
292.945563368
294.399546499
295.011638678
293.419865786
297.286189492
300.692259173
293.429539271
298.833519177
299.286463376
293.444320198
296.940465873
300.82962297
296.097088523
295.07747961
293.432881482
301.6810047
293.518295212
293.730631122
293.505589287
299.477853338
293.963906037
293.76733204
296.972416871
297.429087239
295.361233239
301.688989462
293.514118722
293.732709444
294.186659405
293.551287478
295.075701996
298.201556794
298.772962433
299.359337731
298.624302444
295.094643571
293.511166738
293.83773496
292.952060104
294.066337418
297.667128936
297.09918522
297.276254782
297.382845009
297.19102818
293.669119906
297.007632993
304.035718937
296.33626502
298.008169637
297.540863104
298.980634209
299.078838781
297.792501037
297.005128754
297.442629482
298.048426945
311.981223405
300.120325174
298.139899436
295.937498401
298.219025847
295.901081598
294.210187186
294.523388877
302.077326747
295.207457345
299.305962232
296.51766965
304.15349517
296.843383216
293.648159276
293.603326551
302.210776198
296.703175072
293.595534185
294.203943785
293.96436899
299.663624971
293.527694535
294.309813807
296.620259291
294.402284814
293.624884536
293.568595211
300.857140925
300.763526234
297.812918335
294.595907683
301.898041633
300.158918098
312.228605852
296.0066605
293.797866556
301.531956269
293.004063035
294.404712579
315.797539746
309.654563188
294.720886453
293.502912428
305.995443931
299.672191016
293.305939222
300.22102943
300.385046646
305.1863581
301.011029858
305.730786378
300.942040468
306.142998753
293.426416908
297.456802529
293.286495517
296.332391135
293.580257534
301.527508587
296.64579536
295.303354625
293.493438293
314.8185661
306.243118481
293.67109103
294.177325953
294.254199445
294.595437448
294.169792024
293.950442022
312.648152803
301.241405304
305.031972193
298.025739268
303.97442976
315.320831973
294.112212365
293.821795589
295.198554462
293.447051439
311.563825327
302.058829175
293.568350255
293.673510732
295.614652611
293.373885749
292.931482155
294.427844637
297.92050591
294.949779393
293.443243557
301.820975478
305.301850611
293.053201416
294.309111886
296.71427131
294.031977712
293.759501282
293.497105268
293.741450156
301.487395847
294.74986357
299.693312367
306.75969145
294.566156479
293.519343702
298.262125689
298.14705595
298.020957835
297.923362327
298.77194896
296.756146462
298.241386862
293.949438325
294.096243806
294.71869439
293.587911716
310.496101828
305.675812068
293.192731639
295.021792243
293.752966598
301.334295563
293.268263006
294.745282591
295.982833049
298.518874098
301.747101389
293.495388949
293.741792446
294.314989829
293.519181364
299.346898414
298.621927747
293.271562749
296.468072271
302.96008988
306.595635748
307.452608521
304.723313245
302.752998843
310.681499578
293.542160538
293.71708303
295.954675248
298.407204408
296.345228113
296.334273526
304.899042889
301.546870891
301.506400635
294.249213884
297.621947709
310.554052748
295.222254882
297.969648123
298.734797124
293.40402045
296.807635497
306.041342471
313.487297471
293.672706453
293.793201191
293.651992047
294.693126341
295.602101066
293.27825071
296.899928816
299.449709878
305.148338974
295.237874078
298.240516576
307.324901257
303.409373822
294.416894247
300.101128154
295.808172396
298.900415479
293.515388944
299.280225854
302.069339824
298.333688739
294.718801661
293.594269293
292.996877045
293.804485762
299.976324165
299.489761814
304.500143795
299.342419133
298.937723957
294.068735602
293.94729316
304.858002474
306.173219035
304.935626896
298.775558523
294.223767072
297.429369637
303.072219796
306.845248673
296.447010823
304.942241161
293.761583703
293.500477444
293.206208015
295.408429767
300.091941517
305.415239615
293.908914346
301.599216837
293.528662036
293.720129345
299.254646923
299.652736953
299.940340782
299.269958899
299.335087045
304.507284694
293.935307615
293.50903057
293.613422889
293.657488209
294.065487537
293.521667174
293.925279891
297.516622566
301.491852602
302.929854983
298.701851015
299.472646272
300.179089893
298.585805863
300.247748732
293.506322949
293.755889296
298.324130224
303.260368321
298.412887486
304.27120442
304.421270535
298.75671872
304.41931965
298.705284371
306.757045163
293.265771471
295.680820673
293.518416583
293.981476482
298.197916136
295.942243123
300.514693286
293.249641229
295.218645139
293.511345374
301.383084101
302.890997817
298.703869145
304.080873026
295.481201547
301.267254795
293.455923523
294.314832386
295.008967409
294.787565414
293.600194565
295.022477418
302.306200444
298.195537667
295.932987862
300.433616648
298.490663939
296.113206587
303.020252516
293.542013394
294.005666344
293.721972108
293.546830814
301.370338917
293.661971
315.290661064
305.895491091
298.55295032
298.009760724
293.765255362
294.412367271
295.074641051
298.221611448
312.196268178
303.216941346
293.781956888
293.519261079
296.354649678
298.283748525
295.119845346
293.937736917
301.637046879
293.84449489
293.591791609
297.536995668
294.393159416
294.392070837
302.923059123
299.396307145
304.235461699
294.708558931
297.317630371
302.490416257
307.9927555
296.527776415
293.132224272
294.974722768
297.904660529
293.602717496
295.623965174
301.593568982
294.961295807
298.081854271
307.165683548
302.708274427
295.337441102
293.769936475
293.52565944
294.860382591
293.807409457
293.99387751
293.53922297
294.67446952
293.911581049
293.599793887
294.701277282
301.653983759
307.674563954
300.637920993
296.911357732
293.43748559
294.652276517
302.077128373
294.596264021
293.562080517
309.957003389
307.043737251
297.674761914
301.06129638
295.959252006
295.534503368
293.402880689
293.55522167
294.76819444
311.527593505
297.698190082
295.198531135
298.02012701
294.747368917
293.508055186
300.461118034
297.145640985
293.518755302
293.729763376
302.842361961
308.986971157
293.307399087
294.02094917
293.646128281
293.780023543
302.662150488
294.529221234
302.239272813
294.500240703
297.677568324
294.810070998
293.555139672
298.877887854
295.131912626
293.692245377
293.970412289
293.359738785
295.602818103
294.557821213
293.501263807
294.5050984
293.540438726
312.136031218
301.639321586
303.064142819
313.454124306
294.430641321
293.550406232
294.678774211
293.610971499
295.065199723
298.380644101
294.982835577
301.195918291
293.430154524
295.318646129
293.411461048
293.618958397
294.137167023
293.526834949
305.316802416
300.467146682
297.524490656
295.081685617
298.702192471
293.678632257
293.56772214
312.15296851
297.660911489
293.049736311
294.863356181
295.110023766
293.090302684
293.050787977
294.602507402
293.784220136
293.512449317
294.823498962
293.457816124
294.445629777
293.564810952
294.271508742
293.519517961
293.742736156
293.50275417
293.644034562
294.200883258
297.311974183
297.539997895
299.979538206
308.597019081
301.641086519
300.07584569
298.192566296
293.51819072
294.757516543
294.411416659
293.598711277
293.262395837
294.520752491
293.84018029
293.506860679
293.769993588
293.50505441
293.920732512
293.514341322
293.748146955
293.50215111
294.007993338
293.508188285
293.962776349
294.132830864
293.099205052
295.102396707
297.091319155
293.672977863
294.443581345
293.647401987
295.535957284
298.030452975
295.561265196
293.341700694
293.616202296
294.241957946
294.019163356
293.666549979
293.562651678
294.250000813
293.80550922
293.501352575
300.8382134
293.990052019
295.226921675
293.362983376
295.584412088
293.315718553
293.644881218
293.912559113
294.519214352
296.506234328
293.743505147
293.502617058
293.839762006
293.519899129
294.002004175
293.552461491
294.352772029
293.540117397
293.499557674
293.735078494
298.152485189
301.166459932
293.639998569
301.358727626
301.374583261
308.588357473
298.156678233
294.390184772
295.699525694
298.291486986
307.602861116
311.2154703
309.217963515
307.085150416
307.288859459
303.929287138
311.304284627
305.304235766
304.418650878
312.982730503
308.385751727
313.667619767
304.441457841
307.102946071
304.353230839
300.652881683
305.457744399
310.869157773
293.595733853
293.653819244
293.540758799
294.090402688
310.841419054
301.870181315
305.494880087
300.346606489
305.863605056
318.191443713
293.905466606
293.6406965
293.71562547
294.204923186
294.16145772
293.530487189
298.940043441
298.217557491
302.144263821
301.163472518
293.751590255
293.508092886
304.855707163
299.115426569
304.348959634
299.920655283
312.865813924
307.39575999
293.812009758
293.504360076
293.053636872
295.135360352
293.791558811
293.508991583
297.047620407
304.75280907
298.864338736
305.576907998
293.883708005
293.563416693
299.234658473
304.440571821
298.83212211
293.772900941
294.218399165
298.372434144
302.911085226
301.719391035
293.020690863
294.805654026
296.792912877
298.469959828
298.708220537
304.360847066
293.609189022
293.807046072
295.289722861
293.251638265
295.156798204
294.993405802
303.963387232
300.385092611
299.050030182
304.068860729
301.076584991
298.728220588
304.387218466
299.119034157
306.679392884
295.910360295
294.776098712
302.106267007
299.791225986
298.270562178
293.270637062
295.882592515
293.567421001
294.482842344
293.533068759
293.841728601
295.674289754
300.214272197
298.359205168
302.4087403
297.32985271
293.593561772
304.370478716
298.846980059
293.507727781
294.650573542
293.836381242
299.790327964
304.360631983
299.459364335
293.510354685
293.736841385
293.52212655
293.819515059
297.532965044
298.281556785
303.679893952
296.601129328
293.640650422
293.621576223
293.318943909
293.822177624
299.931267904
298.77587665
303.770556216
294.828664775
299.289856213
297.955388481
293.845972465
301.27380906
294.052710086
293.506011045
298.877994353
298.501403912
293.549653362
294.670103808
294.418099969
293.651116223
298.419222152
304.636891789
303.096272505
294.390314122
300.293324982
301.514790704
293.509126366
293.961452741
304.480479482
298.551761713
295.030666508
302.287757433
293.762876657
293.504012352
300.80897219
294.779348508
294.116586159
293.585867382
296.061133225
297.668610018
298.359946311
299.515547769
299.306467207
296.43476658
296.24458546
297.837642357
298.03869354
299.893861753
295.154297429
298.263035196
297.743263485
297.454237502
302.730505384
294.635771369
295.549790296
302.306679511
295.42792217
302.402861046
303.461456823
294.830353345
296.000878081
299.900255276
296.014061579
297.864790263
297.498518482
297.884934682
301.020510728
294.836236579
297.39366373
298.736335031
296.237107745
298.700465213
294.21111283
293.526576019
295.20726781
298.269985992
295.680388533
298.368754693
293.373180455
295.116629097
293.513800038
294.816251474
301.310195176
293.911051058
294.185253147
293.52446182
293.973753128
293.510391897
293.394692972
293.566898963
293.314665897
293.508293869
)
;

boundaryField
{
    back
    {
        type            wedge;
    }
    front
    {
        type            wedge;
    }
    top_channel
    {
        type            inletOutlet;
        inletValue      uniform 293;
        value           nonuniform List<scalar> 4(296.090913212 302.21085681 294.405241162 293.804669728);
    }
    wall_outer
    {
        type            zeroGradient;
    }
    bottom_channel
    {
        type            inletOutlet;
        inletValue      uniform 293;
        value           nonuniform List<scalar> 4(293 296.70319407 293 293);
    }
    fluid_to_core
    {
        type            compressible::turbulentTemperatureRadCoupledMixed;
        refValue        nonuniform List<scalar> 
56
(
349.141887798
348.747028213
329.224253814
342.255310785
331.176997211
338.578609428
335.528505381
333.062848252
329.896415049
329.35382152
329.12909241
348.604016535
348.25519969
348.350804637
348.770313718
348.189253306
348.170739993
348.220061024
348.357094607
347.443514571
347.627660621
347.80356468
347.954731027
349.366919715
349.055986644
341.878938084
330.050115196
333.049621327
331.277056464
338.354198191
335.409322691
343.955702337
344.356281635
329.615308593
332.067928962
334.131035589
330.585711882
340.006232222
336.770899538
329.077070194
340.311824012
336.962238689
334.216772954
332.044688087
330.418647931
329.466702386
348.929703789
348.468656645
348.45467211
348.15451707
347.975413329
348.032953116
346.957936469
346.770374102
349.714222151
349.588198457
)
;
        refGradient     uniform 0;
        valueFraction   nonuniform List<scalar> 
56
(
0.997581983542
0.996873650961
0.997971305823
0.998141562137
0.998009659714
0.99795898656
0.998003090748
0.997903476879
0.997951927573
0.998333818839
0.998222225856
0.997613053496
0.997269786688
0.996936641913
0.997637679325
0.997757043955
0.99767860345
0.997571179875
0.997866989773
0.997793532256
0.998227392316
0.997764533083
0.998174352184
0.998195327504
0.997750368237
0.998540660583
0.998474686253
0.998339424612
0.998443246469
0.998497479998
0.998395970702
0.998937369858
0.999144886373
0.998817741287
0.998804808433
0.998845476305
0.998890969586
0.998816161747
0.998816847437
0.998820324754
0.998791429639
0.998813468775
0.99884263072
0.998818193101
0.998800874095
0.998808311301
0.99848264352
0.997885508856
0.998635486114
0.998394402735
0.998755652103
0.998812325674
0.99911672748
0.998975195449
0.998755340719
0.998526771705
)
;
        value           nonuniform List<scalar> 
56
(
349.054456919
348.608442701
329.165477522
342.199048218
331.112500256
338.514246311
335.462966356
332.99490002
329.835118617
329.3055037
329.077701752
348.501117311
348.124399515
348.201003911
348.66726407
348.085361703
348.084083885
348.131029673
348.258339927
347.357334925
347.567462803
347.699476506
347.890273736
349.299897969
348.945986682
341.817998642
330.004087212
333.001967987
331.231085122
338.31153399
335.364019073
343.913217201
344.331452998
329.580750825
332.030216481
334.092366963
330.552912277
339.965151408
336.729333132
329.042384609
340.276766339
336.928582465
334.186053836
332.014802908
330.378117475
329.43271811
348.878659883
348.378636645
348.405196959
348.082365589
347.917571666
347.979385387
346.921974179
346.737629787
349.672007546
349.529367226
)
;
        Tnbr            T;
        qrNbr           none;
        qr              none;
        thicknessLayers 0();
        kappaLayers     0();
        kappaMethod     fluidThermo;
        kappa           none;
        alphaAni        Anialpha;
    }
    fluid_to_A2
    {
        type            compressible::turbulentTemperatureRadCoupledMixed;
        refValue        nonuniform List<scalar> 
22
(
343.666394069
343.602503601
344.032345806
344.036106415
342.528311002
342.346672443
342.353165291
342.546608729
342.235094346
344.063562865
344.099151176
342.502374985
343.935532649
343.90008211
342.043359604
341.915146247
341.79963942
341.987317924
341.640084202
342.587500218
342.932387711
342.867170164
)
;
        refGradient     uniform 0;
        valueFraction   nonuniform List<scalar> 
22
(
0.999712217123
0.999504184911
0.99965617966
0.999685413865
0.999530150024
0.999640402196
0.95072816186
0.963035534747
0.952817026697
0.999628950241
0.999749009987
0.934320773444
0.999754670184
0.999561080353
0.95330795582
0.94595469949
0.966804531415
0.969745207822
0.96365979592
0.963963864023
0.999839353035
0.999784684973
)
;
        value           nonuniform List<scalar> 
22
(
343.655352172
343.584235345
344.02184383
344.024597779
342.512364497
342.334760605
340.708938282
341.423099573
340.618852901
344.051129022
344.090763503
340.400248893
343.926539485
343.885583749
340.652520097
340.345191218
340.81493751
341.124054489
340.277428139
341.468171058
342.92841318
342.86035508
)
;
        Tnbr            T;
        qrNbr           none;
        qr              none;
        thicknessLayers 0();
        kappaLayers     0();
        kappaMethod     fluidThermo;
        kappa           none;
        alphaAni        Anialpha;
    }
    fluid_to_mb1
    {
        type            compressible::turbulentTemperatureRadCoupledMixed;
        refValue        nonuniform List<scalar> 10(293.783264285 293.883700864 293.837293052 293.796051241 293.873939435 293.888704636 293.812095783 293.888328142 293.882955422 293.854544416);
        refGradient     uniform 0;
        valueFraction   nonuniform List<scalar> 10(0.942524575916 0.976141588303 0.938294267276 0.95773060723 0.979640371475 0.957331810403 0.957788586079 0.979298631172 0.817382679854 0.959420173373);
        value           nonuniform List<scalar> 10(293.770837185 293.882543459 293.83406439 293.794158174 293.87481453 293.896166505 293.818527241 293.89071803 293.883012407 293.860113436);
        Tnbr            T;
        qrNbr           none;
        qr              none;
        thicknessLayers 0();
        kappaLayers     0();
        kappaMethod     fluidThermo;
        kappa           none;
        alphaAni        Anialpha;
    }
    fluid_to_A3
    {
        type            compressible::turbulentTemperatureRadCoupledMixed;
        refValue        nonuniform List<scalar> 
22
(
330.609007266
330.558651029
329.860827005
329.814062269
330.012385408
330.174142739
329.625252192
330.018451939
329.86527905
330.176487476
330.17671722
327.262797005
330.464442186
330.346818758
326.274608048
326.64630126
326.887639041
326.323306015
329.418395683
330.044381478
327.762680613
327.923259978
)
;
        refGradient     uniform 0;
        valueFraction   nonuniform List<scalar> 
22
(
0.999782713457
0.999641162972
0.999551475184
0.999674014471
0.999621654211
0.99978397143
0.943346505194
0.946121378424
0.939984432715
0.999637400355
0.999676967377
0.908321612737
0.99974141043
0.999646788531
0.916728156333
0.938357430404
0.960571485604
0.953080516879
0.95691189303
0.9552976361
0.999676963716
0.999825642462
)
;
        value           nonuniform List<scalar> 
22
(
330.603382369
330.54985329
329.847295885
329.804936869
330.00324872
330.169154272
328.03981309
328.566195695
328.413514666
330.167524593
330.168238331
324.991753391
330.45727624
330.335260099
323.894984516
324.789110964
325.939562499
324.978469672
328.469498673
328.769082175
327.754156097
327.919716916
)
;
        Tnbr            T;
        qrNbr           none;
        qr              none;
        thicknessLayers 0();
        kappaLayers     0();
        kappaMethod     fluidThermo;
        kappa           none;
        alphaAni        Anialpha;
    }
    fluid_to_c1
    {
        type            compressible::turbulentTemperatureRadCoupledMixed;
        refValue        nonuniform List<scalar> 
34
(
316.462655081
320.628668918
315.200541582
322.078817091
317.407360819
318.384637615
320.602623774
313.762100337
316.205097792
321.030668882
319.488033025
318.583655917
312.365970915
315.513511782
318.116743821
309.509327763
320.510989729
317.477238718
318.511992085
309.710035532
315.904492307
313.406628384
321.151480595
322.009611544
321.530357485
326.678515962
326.468971573
324.787606763
324.118578975
320.076036298
320.822090938
326.7191419
326.403737216
319.025111492
)
;
        refGradient     uniform 0;
        valueFraction   nonuniform List<scalar> 
34
(
0.887520013354
0.90274401665
0.890075479806
0.913959317571
0.960230623412
0.961325991512
0.964100115191
0.929043845825
0.928813195652
0.95195635504
0.955018852116
0.943644930556
0.937078875118
0.940092056894
0.950998860386
0.937757697927
0.970751953499
0.955904578311
0.969987273127
0.941477105943
0.963755180041
0.966732847164
0.931480733872
0.939952748423
0.925392571925
0.948175697948
0.948739981351
0.950072564126
0.944242120302
0.93455062471
0.923180841822
0.947328786524
0.946535046229
0.938727751812
)
;
        value           nonuniform List<scalar> 
34
(
314.492973576
319.002787448
313.333706977
320.597118534
316.926583381
317.788110284
320.099780303
312.81874346
315.294195214
320.361521711
318.940770667
317.786638383
311.358303413
314.685134306
317.426716219
308.689284882
320.054307442
316.774782811
318.161845958
309.026250004
315.439381059
313.127994019
319.381220292
320.812016275
320.052374673
325.61420224
325.428546017
323.836108869
323.062799484
318.863251179
318.815713385
325.627463222
325.303773989
317.537731636
)
;
        Tnbr            T;
        qrNbr           none;
        qr              none;
        thicknessLayers 0();
        kappaLayers     0();
        kappaMethod     fluidThermo;
        kappa           none;
        alphaAni        Anialpha;
    }
}


// ************************************************************************* //
