/*--------------------------------*- C++ -*----------------------------------*\
| =========                 |                                                 |
| \\      /  F ield         | OpenFOAM: The Open Source CFD Toolbox           |
|  \\    /   O peration     | Version:  5.0                                   |
|   \\  /    A nd           | Web:      www.OpenFOAM.org                      |
|    \\/     M anipulation  |                                                 |
\*---------------------------------------------------------------------------*/
FoamFile
{
    version     2.0;
    format      ascii;
    class       volVectorField;
    location    "0/fluid";
    object      C;
}
// * * * * * * * * * * * * * * * * * * * * * * * * * * * * * * * * * * * * * //

dimensions      [0 1 0 0 0 0 0];

internalField   nonuniform List<vector> 
811
(
(0.00937799047609 0.0220103577937 3.49261738394e-21)
(0.00936782136339 -0.0220020746732 0)
(0.010309025742 0.0286331327802 0)
(0.0103123106559 -0.0286407550848 0)
(0.015870775069 -0.0286852068519 0)
(0.0158604700234 0.0286861357798 8.59924174704e-21)
(0.0263770291828 0.0183163734767 0)
(0.026384952034 -0.0183112897755 8.60593109161e-21)
(0.0168671834618 -0.0286834483617 -7.87979591617e-21)
(0.0168643990949 0.0286902457118 -9.93406768828e-23)
(0.0295120812116 0.0270916952687 0)
(0.0295137611595 -0.0270906940612 0)
(0.0289346967552 0.00673621184273 0)
(0.0289328730068 -0.00675730653843 0)
(0.0274959147159 -0.01804236774 -4.60398870902e-21)
(0.0274959147158 0.01804236774 -4.60032485168e-21)
(0.0112818206321 0.0286710292915 0)
(0.0112773594703 -0.0286695092862 4.87751126924e-23)
(0.028976572493 0.0277294411168 -6.300203615e-21)
(0.0289612996248 -0.0277309287732 1.53688648674e-21)
(0.0280036495263 0.00664808219596 0)
(0.0280032306021 -0.00667621561294 1.23709057121e-21)
(0.00832895068971 -0.00301116792034 0)
(0.0255670592944 -0.0261637387605 -1.27718509262e-20)
(0.025573433622 0.0261679811594 -6.37586808705e-21)
(0.0213334511629 0.0254764038305 0)
(0.0213334511629 -0.0254764038305 0)
(0.0253283898976 0.00995803312497 3.53422871451e-21)
(0.0253505637497 -0.00993903593623 0)
(0.0083367000381 -0.00700710395905 0)
(0.0247588850443 0.00930197803075 1.10049106415e-20)
(0.0247633815928 -0.00932356702761 0)
(0.00874874291769 -0.0209407703337 -4.57818299798e-23)
(0.00877101280393 0.0209507451992 1.7539971899e-21)
(0.0217689260515 0.000999999999985 -5.03418574744e-21)
(0.0221355275967 -8.39766538371e-15 1.08813188899e-22)
(0.0217689260515 -0.00100000000002 -6.36018071159e-21)
(0.00573657017856 0.00299999999995 2.54005858335e-21)
(0.00574150299864 0.00700786707461 0)
(0.0261941123079 -0.0268614518561 -1.3401865839e-20)
(0.0261979739132 0.0268585268613 -2.48314407098e-21)
(0.0287593376539 -0.0254286455941 2.32392462899e-20)
(0.0288122953352 0.0254216712584 0)
(0.0233562813937 0.0176469428018 7.22887127993e-21)
(0.0233349669947 -0.0176373420163 0)
(0.00769436717472 -0.00807425518043 -5.82879457539e-23)
(0.0220968470129 0.0261390919029 -8.5688334391e-22)
(0.0220968470129 -0.0261390919029 0)
(0.00613794410228 -0.0275088267264 0)
(0.00613794410228 0.0275088267264 0)
(0.0246346256345 -0.0261274382466 0)
(0.0246411192887 0.0261317240358 7.56821143846e-22)
(0.00899258707112 0.0230177821415 -4.61840134172e-21)
(0.00887522175041 -0.0229828935656 -5.63998858305e-23)
(0.0233097202437 0.0167287691114 0)
(0.0233000881976 -0.0167386517818 -2.33581255011e-20)
(0.00838167970982 -0.00906414778457 -5.83961859026e-23)
(0.0289440060644 -0.0114395265952 0)
(0.028943036583 0.0114415153223 0)
(0.0238179134384 -0.0267064000409 -3.42736516518e-21)
(0.0238245185292 0.0267106858139 -2.05207030732e-20)
(0.0282424665895 0.00145495661935 1.6968429445e-20)
(0.0282421071965 -0.00146093870203 -9.56910523241e-22)
(0.00806169637405 -0.0100704323557 -5.62235636323e-23)
(0.00767147572667 -0.00600641700025 -2.24707691742e-23)
(0.0275595374099 -0.0289593091254 0)
(0.0276548865796 0.0290129704808 -5.87811589269e-21)
(0.0294411857525 -0.0122141728262 2.18294407538e-22)
(0.0294402243753 0.0122161598956 2.05989673176e-22)
(0.0263832210739 0.0194134622229 1.4646363253e-20)
(0.0263918260039 -0.019407555113 1.61806393517e-21)
(0.00751154427343 -0.0239553788374 1.73390065453e-21)
(0.00765421218494 0.0239868466342 0)
(0.018260476814 0.0125990497011 -1.18708543335e-20)
(0.0182514299285 -0.012601650795 0)
(0.00787703518052 0.0230948608778 1.93061367521e-21)
(0.00773946478767 -0.0230553355151 -2.29962798253e-23)
(0.0277634019424 -0.0169949184712 -9.48221261159e-21)
(0.0277634019423 0.0169949184712 6.40335452141e-21)
(0.028737622058 -0.0244488069568 1.42840474226e-21)
(0.028792299822 0.0244413189559 -1.43412410046e-21)
(0.00765311954185 -0.00203177633677 2.24385043984e-23)
(0.00639928849969 0.001998556111 0)
(0.00640197026847 0.00600889012261 2.35899159985e-21)
(0.00644366142447 0.00807648249588 1.09760841491e-21)
(0.00639731826363 0.00399890829692 -2.39291702409e-21)
(0.0214893198096 -0.0186194435653 0)
(0.0215485476397 0.0186066919437 0)
(0.00839630196743 0.00906421588161 0)
(0.00640642225385 -0.0175257217353 0)
(0.00634540509623 0.0175374627739 0)
(0.00766342192496 -0.00401248027715 1.86505300402e-21)
(0.0186331873154 0.0118659832708 -7.26839845987e-21)
(0.0186312894392 -0.0118714507659 -9.52670134522e-23)
(0.00768687419534 -2.3053353272e-05 0)
(0.00635885323749 -2.41178494324e-05 2.67330954652e-23)
(0.00639258487195 -0.0184107725502 0)
(0.00633016219654 0.0184316059575 -7.28771504855e-22)
(0.00558539581999 -0.0267327698874 2.11310924625e-22)
(0.00558539581999 0.0267327698874 -2.11310924625e-22)
(0.00751330057702 0.0169444599882 1.0910345874e-21)
(0.00757287138489 -0.0169322090261 2.41710419255e-21)
(0.00751355824555 0.0160623643023 0)
(0.0075085810902 -0.0160564104574 -3.69450087159e-22)
(0.0225490666398 -0.00412363012311 0)
(0.0225364064261 0.00412133800675 0)
(0.0218479132671 -0.00273864951335 0)
(0.0218471842847 0.00273852247695 0)
(0.00811431370227 0.0100904901695 -4.42279675308e-23)
(0.0210071174947 -0.01779740338 0)
(0.021014419376 0.0177943925552 -9.08607392811e-22)
(0.00628535963014 -0.0101222075004 0)
(0.029449912189 0.00584044214878 0)
(0.0294507161463 -0.00585190922706 2.06131951538e-22)
(0.0294677314518 0.0288903306566 -1.18918367696e-21)
(0.0294509030108 -0.0288929938329 0)
(0.0269926259563 -0.0218628324343 0)
(0.0270016410597 0.0218639101446 0)
(0.0260915949296 -0.0276968412573 -1.04156806093e-22)
(0.0261755763507 0.0277519855388 9.61570525789e-21)
(0.0252941571221 -0.0108453836056 0)
(0.0252288869076 0.0108874772132 6.09356735833e-21)
(0.00573230701209 -0.00907076123776 0)
(0.0256058714393 0.0198395901935 -9.87025763409e-23)
(0.0256146050352 -0.0198336022401 -1.86298027062e-21)
(0.0237159376099 -0.0276105850366 6.98247602225e-22)
(0.023743218889 0.0275891238762 -1.59176896062e-21)
(0.0197714255036 0.0109642844898 0)
(0.019769369078 -0.0109624746589 0)
(0.0223482781066 -0.0289628769112 6.3513524819e-21)
(0.0223715809136 0.0289361836094 0)
(0.0268300995996 -0.0294855946117 -6.70232867187e-21)
(0.0269091129069 0.0295419548174 1.63528839871e-21)
(0.00728315241005 -0.0104558656562 -5.81481744532e-23)
(0.0183710911186 -0.0275427915033 -6.7696801637e-21)
(0.0184002826047 0.0275454940823 0)
(0.0295137611595 -0.0259191927507 4.49563721457e-22)
(0.0295120812116 0.0259201767904 -2.72954386536e-21)
(0.0288280062519 0.0294734855511 -1.73017985928e-21)
(0.0288109948864 -0.0294762510184 5.29275469211e-21)
(0.0238129635138 0.00929274649021 1.8203963868e-21)
(0.023901635657 -0.00932137216201 9.40302445839e-22)
(0.00834978652717 -0.00102072559764 -2.42650652447e-22)
(0.00569367498829 -0.0010228576121 4.17706621198e-22)
(0.029500289106 -0.000666666666633 0)
(0.00570776024691 0.000997457890109 2.65116111827e-21)
(0.00570566509043 0.00499999999996 -2.37809555448e-22)
(0.00835968167681 -0.00500000000001 1.10283689732e-22)
(0.00575000586703 0.00907084276094 -4.08837610754e-22)
(0.00835968167682 0.00500000000001 0)
(0.00570566509042 -0.00500000000007 0)
(0.00836141107799 0.00099769517993 0)
(0.029500289106 0.0006666666667 0)
(0.00630401983751 0.0101217019264 0)
(0.0224400874764 -0.0238450680604 8.41798705942e-21)
(0.0224730019023 0.0238427982227 8.56512104957e-21)
(0.0224791099538 -0.027957352964 9.51803772152e-22)
(0.0225023435279 0.027930956375 -1.11777692643e-22)
(0.0063671014746 -0.00807818452697 0)
(0.0222621700022 0.0100101472987 0)
(0.0222792060597 -0.010045136236 -1.89080025229e-20)
(0.00622532241303 0.0294303993983 0)
(0.00622532241303 -0.0294303993983 0)
(0.0267953129647 -0.0210336978477 0)
(0.0267975659373 0.0210348717439 -1.21101468817e-20)
(0.0224613196833 -0.00317974376843 -1.04220631506e-21)
(0.022454060638 0.00317843092729 0)
(0.0231232061994 0.00140610601576 -1.16529408333e-21)
(0.0231239146511 -0.00140624169291 6.71135797257e-21)
(0.00966169918069 -0.0294506528142 -5.87563621091e-23)
(0.0096540042428 0.0294416759312 -5.32315468568e-22)
(0.0206050304237 0.0105425536196 -1.17046611544e-21)
(0.0206030165817 -0.0105407529544 1.27878524021e-21)
(0.00558275319103 0.0287630422817 0)
(0.00558275319103 -0.0287630422817 0)
(0.0251647548823 0.00201200488124 0)
(0.025164610522 -0.0020097713714 8.88077920649e-21)
(0.0232449944804 0.0131236241008 0)
(0.0232504128584 -0.0130970596569 7.63239965836e-21)
(0.0153387392517 -0.0294815387604 0)
(0.0153387392516 0.0294815387604 -1.02448998757e-22)
(0.0292476938585 0.00242035675175 0)
(0.0292472807149 -0.00242728842987 5.68059740632e-21)
(0.0226993304526 0.0138506211042 0)
(0.0226604921148 -0.013840383801 4.28399764989e-21)
(0.0275323890778 -0.0243080962546 1.06929691332e-21)
(0.0276614120528 0.0242992840394 0)
(0.00734022734171 0.0104758673694 4.02595727923e-22)
(0.0231921803834 0.010166091857 1.04270948793e-22)
(0.0232152500451 -0.0101949050959 -9.72060349535e-21)
(0.0177905701223 -0.0144860631555 1.82325123187e-21)
(0.0177977916929 0.0144888045456 -6.22111174992e-21)
(0.0273068371768 -0.0235618932778 5.46722460972e-21)
(0.0273864273574 0.0235616439884 -1.59591554825e-21)
(0.00634192559585 -0.00600659826195 -1.99842521668e-22)
(0.025960219372 0.00204090824623 9.28001214992e-22)
(0.0259600772322 -0.00203869207169 4.31557958147e-21)
(0.0294152055651 -0.0160079322573 0)
(0.0294152055651 0.0160079322573 0)
(0.0219306823238 0.0050137657342 0)
(0.021936901068 -0.00501488478826 -1.11262855615e-22)
(0.0178063548383 -0.0255613246222 1.42256030773e-21)
(0.0178063548383 0.0255613246222 1.9098609967e-21)
(0.0252064016518 0.00810614325285 1.02665826433e-22)
(0.0252076391605 -0.0081495389626 4.14618260182e-21)
(0.00776409824925 0.00807288356331 5.76286675481e-22)
(0.0077261125582 0.00600831329319 2.26970953758e-21)
(0.00772187804519 0.00399909747293 -4.69681179298e-21)
(0.00772367246414 0.0019984943461 3.33369494886e-22)
(0.00559084082994 -0.0110603354624 -2.4967990965e-22)
(0.00604402968635 -0.0220833353151 0)
(0.00601954778117 0.0220579814599 0)
(0.0237291772353 -0.00182042766944 0)
(0.0237284777377 0.00182029608909 0)
(0.0243621145627 0.0181094542207 -9.70593644377e-23)
(0.0243562708848 -0.018091971849 6.62889373141e-21)
(0.00941200222517 0.0199422270961 0)
(0.00940061876563 -0.0199406726162 0)
(0.0241765707985 -0.0226011835344 0)
(0.024212595716 0.0226086417935 -3.16142156788e-21)
(0.0189115370129 -0.0282907846362 -1.03816060034e-22)
(0.018940304496 0.0282931864504 0)
(0.0250859439706 -0.0221850379846 3.1413165855e-21)
(0.0251095200902 0.0221885754139 9.5737631099e-22)
(0.00775472909375 -0.0137002102188 4.36467682487e-21)
(0.00777622020067 0.0137108029424 0)
(0.00559277400781 0.0110603436434 0)
(0.0290142075466 -0.0150791143465 1.67394228507e-21)
(0.029009703221 0.0150897951349 2.0743181276e-22)
(0.0260684756723 0.00796582438755 2.55185130911e-21)
(0.0260344167975 -0.00799310930025 1.07866264809e-20)
(0.0196772764101 0.0118147636547 -1.05929532472e-22)
(0.019675214971 -0.0118129730127 -2.15650795721e-22)
(0.0221560299777 -0.023007321118 -9.74410861674e-23)
(0.022248997435 0.0229862391074 5.27648470856e-21)
(0.0117875260128 -0.0105181751122 0)
(0.0117874963095 0.0105179076252 0)
(0.0124800001263 0.0144900925322 -3.77820953049e-21)
(0.0124800001263 -0.0144900925322 0)
(0.0144634312648 -0.0144822222434 6.51966025642e-21)
(0.0144634312648 0.0144822222434 1.30393205128e-20)
(0.0287836407478 -0.00966254221982 1.05346533774e-20)
(0.0287836407478 0.00966254221984 1.05346533776e-20)
(0.00714089284386 -0.0272633145771 5.67869158137e-21)
(0.00714522142301 0.027264826144 3.75654664701e-22)
(0.021900494814 0.00898488889265 -1.0551569298e-21)
(0.0219591278402 -0.009 3.20616469352e-21)
(0.0151001476554 0.0105139601072 8.19153809894e-22)
(0.0151000860599 -0.0105134533088 -9.87154531912e-21)
(0.0215304547121 0.0245210465085 -1.47522828128e-20)
(0.0215128450925 -0.024527780309 5.50316825698e-21)
(0.0144777520381 -0.0255156789578 0)
(0.0144777520381 0.0255156789578 9.66287632111e-21)
(0.00705200572512 -0.0220822116095 1.2352939603e-21)
(0.00704105218504 0.0220664332881 6.01481765845e-23)
(0.0230019952294 0.0258860422935 -5.01361706409e-21)
(0.0230019952294 -0.0258860422935 -6.30173725787e-21)
(0.00633307078642 -0.00401327087693 0)
(0.0124886076232 -0.0255131873987 -5.55476053906e-21)
(0.0124886076232 0.0255131873987 -5.55476053906e-21)
(0.0289115719908 -0.0017584680064 0)
(0.0289119875193 0.00175151917676 -2.3851924961e-21)
(0.0232430898531 -0.00597380501011 6.86273765335e-21)
(0.0231863034395 0.00595740224087 0)
(0.0225525040129 0.0184455509035 -1.04485895576e-21)
(0.0224810170083 -0.018445511433 1.40315522179e-21)
(0.00632173428791 -0.00203322391416 -1.00540903519e-21)
(0.0213267130789 -0.0294459043331 0)
(0.0213287704567 0.0294455811864 1.05630681941e-22)
(0.00774180569905 -0.026334964698 1.57726601298e-21)
(0.00776032343758 0.026338692214 -4.41023708358e-21)
(0.016738403944 0.01042649022 -7.37299264394e-22)
(0.016738403944 -0.01042649022 3.1559171598e-21)
(0.0272123949115 -0.0280722370645 -1.16745949784e-20)
(0.0273059552704 0.028119854363 -1.116142793e-21)
(0.00839082201541 -0.0173769771045 1.39928436832e-21)
(0.00829535857451 0.0173892266372 6.93346928543e-22)
(0.0216093088313 -0.0205098623941 0)
(0.0216831635944 0.0204924550213 0)
(0.0172544035622 0.0110173639749 0)
(0.017252431939 -0.0110229121267 -6.00469713495e-21)
(0.0234772350439 0.00665947626103 9.61403500602e-23)
(0.0235472255849 -0.00674264241298 -9.27571537744e-21)
(0.0294923207382 -0.0237739818674 1.64039020371e-21)
(0.0294923207382 0.0237739818674 -1.64039020371e-21)
(0.00567781212755 -0.00700783403612 5.83245469304e-23)
(0.0130493491317 -0.0140360693035 2.48888697678e-21)
(0.0130497305756 0.0140375715596 4.77547612567e-22)
(0.0171939523828 0.0125963890747 1.02088008334e-22)
(0.017182926975 -0.0126039371205 -1.02808047436e-22)
(0.0247349742305 0.00141242979751 5.54390663411e-22)
(0.0247349742305 -0.0014124297975 0)
(0.00838927631377 0.00700713146834 0)
(0.00838520119234 0.00300000000001 0)
(0.0138786564776 0.0140256928717 2.80731741954e-21)
(0.0138782865942 -0.0140242132047 -6.73118727931e-22)
(0.0215561376242 -0.0214628516891 -4.05497023892e-21)
(0.0216388522856 0.0214378274618 9.4853038321e-23)
(0.0101215859116 -0.0104370966329 2.59523149484e-21)
(0.0101215859116 0.0104370966329 0)
(0.0139037663857 -0.0259739073671 -2.00378280746e-21)
(0.0139037663857 0.0259739073671 -6.10008920849e-21)
(0.0281471413717 0.014924640722 0)
(0.0281517145959 -0.0149138844133 0)
(0.0232562584155 -0.0240439217917 0)
(0.023271652675 0.024048108576 9.77472459554e-23)
(0.00963040875624 -0.011018086699 -1.36605693914e-21)
(0.00963040875623 0.011018086699 0)
(0.0172887028456 -0.0275778179168 2.09546405426e-22)
(0.0172859476674 0.02758451899 1.79940749416e-20)
(0.0295063362989 -0.0102239729234 -3.95313097815e-22)
(0.0295063362989 0.0102239729234 -1.10145493722e-21)
(0.0186320187529 0.0141271594692 -6.1013833208e-21)
(0.0186242019083 -0.0141235141874 6.61592155613e-22)
(0.0169312990381 0.0141342036102 6.83052513173e-21)
(0.0169238927513 -0.0141313926061 7.3694947579e-22)
(0.0111203986097 -0.0109529370133 -1.09542274759e-22)
(0.0111203680035 0.0109526657291 -2.0871544661e-25)
(0.0270234696377 0.0103848860189 5.95157603059e-21)
(0.0270651949862 -0.0103639257833 0)
(0.0290832001713 0.00311371700251 0)
(0.0290828459834 -0.00311966091706 -2.06943670111e-22)
(0.0265419090959 0.00957707170747 -1.38439298742e-20)
(0.0265575891171 -0.00956395809725 1.11620801777e-21)
(0.0279733817331 -0.0274270930325 -1.74127727777e-20)
(0.0279865634345 0.0274186691056 2.11533462106e-20)
(0.011907593716 0.0294772913934 -1.69179907866e-21)
(0.0119071353222 -0.0294771368818 1.63593918748e-21)
(0.01885941965 0.0133106204684 9.3580906491e-24)
(0.0188516493803 -0.0133068980988 -2.10547144083e-21)
(0.0166707961835 0.0133199261466 6.8464044696e-21)
(0.016661603592 -0.0133219836666 -2.15552588064e-22)
(0.00566841561389 -0.00301231498899 1.35005851667e-21)
(0.0280015838068 -0.0115821198549 -1.08334842733e-20)
(0.0280005981582 0.0115841260654 -1.36675566521e-21)
(0.0152437795862 -0.0125202247101 0)
(0.0152456475293 0.0125156707763 6.08759828082e-21)
(0.0143437586889 -0.0124735935091 1.59947233992e-20)
(0.0143460046627 0.0124829242278 0)
(0.0116789133206 0.0125271603113 0)
(0.0117038735304 -0.0125286341779 0)
(0.012563990583 0.0124870853326 0)
(0.0125616868506 -0.0124782303693 0)
(0.00547297305483 -0.0128828105693 0)
(0.0224824886347 -0.0221146538319 -1.05548060295e-23)
(0.0225791291791 0.0220938304018 3.31047487943e-21)
(0.0267986746416 -0.0087918896786 1.02093265766e-22)
(0.0268350636462 0.00878053148973 -2.13522494615e-22)
(0.00760501780522 0.0145866676013 2.0377104072e-21)
(0.00757472805886 -0.0145722200257 4.203228567e-22)
(0.00547459208126 0.0128837261381 0)
(0.023313203508 -0.0218472276574 -1.0076600395e-21)
(0.0233603578957 0.0218443679388 9.20066743846e-22)
(0.0205946453406 -0.027481600334 0)
(0.0206177889345 0.0274782563945 4.15427622364e-21)
(0.0157407815052 0.0109418388069 -6.43581304742e-24)
(0.0157407211476 -0.0109413375857 -8.42900052648e-21)
(0.013068967144 0.0259674630941 -8.42178753245e-21)
(0.013068967144 -0.0259674630941 -5.73362971151e-21)
(0.0216722367689 0.0273061741959 -5.78826503734e-21)
(0.0216701956295 -0.0273064447708 0)
(0.0222765570806 -0.00601269219156 -3.68758197695e-24)
(0.0222703866697 0.00601164520277 0)
(0.0230555885939 0.00769999510645 1.60107955029e-20)
(0.023132467445 -0.00778401913406 1.03715401091e-22)
(0.0186587825268 -0.0259385433051 -2.61713634355e-21)
(0.018672661991 0.0259251577103 9.6389804541e-23)
(0.00906183293736 -0.0189322991491 0)
(0.008250630213 -0.0185763078659 -4.51558792817e-21)
(0.0090362938574 0.0189352276471 0)
(0.00817001570557 0.0185921062972 2.5719466469e-22)
(0.0169644310193 -0.0259419921483 -1.04604583385e-22)
(0.0169631045706 0.0259420872626 -6.21725001408e-21)
(0.027927791312 -0.0220523077988 -3.73366973195e-21)
(0.0279668424049 0.0220330714544 0)
(0.0287654793845 0.00866816735905 0)
(0.0287628370409 -0.00867781014075 -9.6978906081e-23)
(0.0200852345559 0.028254989077 1.06903552628e-20)
(0.0200617920704 -0.0282585830269 6.71577853093e-21)
(0.0233543260552 0.0294898109866 -1.03893855204e-21)
(0.0233334918377 -0.0295160272112 1.43403559043e-20)
(0.0202996385236 0.0125421608944 -7.3282269216e-22)
(0.0202993029356 -0.0125365781176 -1.27523331825e-21)
(0.0235721024962 -0.00412260490314 -1.07989904595e-21)
(0.0235105969418 0.00411155416502 0)
(0.00751207515306 -0.0254862395258 7.6340895115e-22)
(0.00754097816907 0.0254915921316 3.16798293348e-22)
(0.0176227982666 0.0294835817473 0)
(0.0176157449337 -0.0294778332332 -3.86937135056e-21)
(0.0278385366368 0.0104699717975 7.34506336882e-21)
(0.0278385366368 -0.0104699717975 7.56764352308e-21)
(0.00757045877186 -0.0116164856942 0)
(0.00756186544847 0.0209238079943 -4.44333420179e-22)
(0.00757193756673 -0.0209430614826 5.52551052292e-23)
(0.0189279182769 -0.0267768684061 -3.46179851298e-21)
(0.0189636389737 0.0267604544419 2.65217163823e-21)
(0.0275021254617 0.0048096855934 0)
(0.0275099485246 -0.00493570661991 0)
(0.0212780457136 0.0126467198723 -1.14164485636e-21)
(0.0212724629809 -0.0126387123842 1.24439645595e-21)
(0.0167291874849 -0.0268094304658 -6.44544939723e-22)
(0.0167178140197 0.0268101650843 8.79100912075e-21)
(0.00991418343817 -0.012576235772 1.25989964298e-21)
(0.00989388431759 0.0125803281268 -1.33006677595e-21)
(0.0210806067472 -0.0143250037535 -1.42078508026e-20)
(0.0211099485037 0.014334852412 0)
(0.0208885218287 -0.0198209053777 0)
(0.0209412958222 0.0198104092257 1.09842374901e-20)
(0.00608473351408 -0.0135381287873 -2.41481942509e-22)
(0.0276066133446 -0.0258313625596 -3.07396951691e-21)
(0.0276606567732 0.0258241101355 1.00634896308e-22)
(0.00761110817543 0.0116354370971 0)
(0.027378067315 -0.0266032667762 -1.80840333226e-20)
(0.0273739391711 0.0265972544732 -1.9601856516e-21)
(0.0203670482853 0.0290868047077 0)
(0.0203649423737 -0.0290871233514 5.61931183101e-21)
(0.00609630400837 0.0135460616328 2.10658577301e-23)
(0.00550767509386 0.0191165844397 0)
(0.00550911079204 -0.0191092029171 -3.0833241295e-23)
(0.0222404339863 0.00798668571235 -1.03344140293e-21)
(0.0222986112182 -0.00800237477872 1.18075652788e-21)
(0.0240317581312 -0.015059636908 3.4383706913e-21)
(0.0240323156363 0.0150463673667 0)
(0.0266134572897 -0.00144145559691 2.15999866001e-21)
(0.0266134572898 0.00144145559691 6.37031446958e-21)
(0.0246300079817 -0.00759373941231 -9.91596452181e-23)
(0.0245821731537 0.00748998997532 -1.03821919464e-22)
(0.0267880844435 0.00430401488969 9.99042084894e-21)
(0.026746451004 -0.00439404228279 7.81484680246e-22)
(0.0117654352079 -0.0275207354885 -3.83305408184e-21)
(0.0117698052928 0.0275223530979 6.36586691935e-21)
(0.00552409064747 -0.0168856042442 2.37830282058e-23)
(0.00552409064747 0.0168856042442 0)
(0.0217347895689 0.0136244774113 4.71842915288e-21)
(0.0217006778577 -0.0136120505248 6.33275288859e-21)
(0.0126592955364 -0.0275185731179 4.1307492142e-22)
(0.0126597402573 0.027518743117 0)
(0.0246231490746 0.0142397274373 1.02760132509e-22)
(0.0246241975735 -0.0142460416386 -9.67094164843e-23)
(0.00556757135758 0.0230826051316 0)
(0.00555343930555 -0.0230788980297 2.26772221877e-22)
(0.00893752546841 -0.0126091244507 5.26959805871e-23)
(0.00894467500841 0.0126145902203 -6.57317466765e-22)
(0.00700964988673 -0.0121755399374 3.96848365144e-22)
(0.0228526935616 0.012109660325 1.21418570626e-21)
(0.0228213766471 -0.0121063011082 8.27001131436e-21)
(0.0242802855034 -0.0160346596291 1.10515678199e-22)
(0.0242781488472 0.0160197284127 -9.1993202525e-22)
(0.0208961895106 0.0220893581367 0)
(0.0208344222207 -0.0221081551333 1.10592155175e-22)
(0.00741214629203 -0.0190167356408 -5.7310143021e-23)
(0.00736716669364 0.0190398570584 1.9531086294e-22)
(0.0241715417078 0.0132773091722 -1.10218033936e-22)
(0.0241817840022 -0.0132533770351 -9.67951412435e-22)
(0.00867604061673 0.0135251290848 4.85824588886e-23)
(0.0086568652145 -0.013515855069 -5.93784558287e-21)
(0.0295814513466 -0.0220910064278 0)
(0.0296135766059 0.0220713824207 0)
(0.0208116955289 -0.0159726198898 0)
(0.0208167318728 0.0159684543492 0)
(0.0280885950147 -0.022877161516 1.01283420744e-21)
(0.0281275329382 0.0228576678002 -1.93125395492e-21)
(0.028236709807 -0.00337837572411 -8.4637135453e-21)
(0.0282407849071 0.00331004037976 5.92652952057e-21)
(0.0152597679051 0.0275296513225 0)
(0.015270278285 -0.0275289027521 9.70295936833e-23)
(0.0143630608094 0.0275125262537 7.21714643991e-21)
(0.0143630608094 -0.0275125262537 7.21714643991e-21)
(0.00701279914767 0.0121763732393 4.7370673046e-23)
(0.024165782644 0.0190731893919 -1.25517653009e-20)
(0.0241413941823 -0.0190587676882 0)
(0.00989997196444 0.0274824791612 0)
(0.00990664542289 -0.0274971827288 0)
(0.0274775940368 -0.00190212951542 -1.25829672595e-21)
(0.0274779584376 0.00189610431215 1.00906031285e-21)
(0.0223224463771 -0.0154128267579 0)
(0.0223591071328 0.0154072775212 5.05196545021e-21)
(0.0244684049404 0.0115379142607 -1.39433317391e-20)
(0.0245047406368 -0.0114952134249 0)
(0.0247598878775 0.0124940852612 -1.07988161831e-21)
(0.0247898267568 -0.0124570349039 5.80235230318e-21)
(0.00952905144967 0.0160739008251 0)
(0.00953225824138 -0.0160720603092 0)
(0.00952290967294 -0.0239765224952 5.66985059009e-23)
(0.00962639158512 0.024 4.95272797099e-23)
(0.0253297466555 0.0164404646393 -1.65046913098e-20)
(0.025333415994 -0.016448375337 -1.18463705026e-20)
(0.024726777602 0.0197164548371 -1.64747853049e-20)
(0.0247156258485 -0.019714378648 8.75159386446e-22)
(0.00898342317332 -0.0273838049327 -5.13054219334e-23)
(0.00897580150772 0.0273685595127 0)
(0.0185739977116 -0.0291242117232 0)
(0.0185808686727 0.0291299217166 -2.09102110066e-22)
(0.0229980911139 -0.0148112181618 2.49311175736e-21)
(0.0230332531111 0.0148116955466 2.23670844348e-22)
(0.0294638588723 0.00129779409828 -2.0980572418e-22)
(0.029463799152 -0.00129878975909 -2.17040684958e-22)
(0.0265661801752 0.00721532563352 -1.9637848643e-22)
(0.0265603429946 -0.00724216607886 -9.6913083884e-23)
(0.0188002536058 0.0104211599728 1.10437585908e-22)
(0.0188002536057 -0.0104211599728 8.08039784249e-22)
(0.00603885057427 -0.0119404093075 -2.76261796397e-22)
(0.00869530301059 -0.0264501636098 1.23881929169e-21)
(0.00870921980883 0.0264465192858 -1.62615925378e-23)
(0.0294883954126 0.00789660281194 -1.65779453718e-21)
(0.0294857851573 -0.00790616896996 9.8288166139e-22)
(0.0208094527577 0.0239086942056 0)
(0.0207915352048 -0.023915360927 0)
(0.0255653559199 -0.0243036574524 0)
(0.0256515750296 0.0243058367986 6.78673029233e-21)
(0.0247855306926 0.024309995151 0)
(0.0247751360823 -0.0243064313261 -2.48073435617e-20)
(0.0261958176672 -0.0234810620818 2.10169768991e-21)
(0.0262871615756 0.0234844842599 0)
(0.0289457623271 0.0214375761095 -2.14025659696e-22)
(0.0289132730989 -0.0214571321869 -2.11923174502e-21)
(0.0234894003193 0.0113071416513 8.48446138108e-23)
(0.0234698586724 -0.0113001432924 -2.2104164256e-21)
(0.0253673015793 0.0176090389555 -1.24260947313e-21)
(0.0253743683632 -0.0176040005606 1.37463063284e-20)
(0.0256953058793 0.0126894032029 -8.64752964608e-21)
(0.0257154487378 -0.0126739912894 0)
(0.0295370785495 0.0179825262592 0)
(0.0295370785495 -0.0179825262592 0)
(0.0253193372297 -0.00357368565215 -5.19069980176e-21)
(0.0253222145689 0.00359289042875 0)
(0.00844302083895 -0.011798681765 4.96827955704e-23)
(0.00604224290227 0.0119413051716 1.51442161482e-21)
(0.00847994333775 0.0118170254763 -3.76266652624e-21)
(0.00551609502444 -0.0210049758724 0)
(0.00547615978402 0.020972981099 3.00858896319e-22)
(0.0181346351531 0.0110116723254 7.7585030564e-22)
(0.018132711741 -0.0110171526435 -6.62319549983e-23)
(0.0238012895105 -0.00828736388208 -1.65117598098e-21)
(0.023699257326 0.00818427422729 -2.22563892875e-22)
(0.0245951016003 0.00493829264058 -9.80913837539e-21)
(0.024718339752 -0.00500751565463 0)
(0.0260420323189 -0.0226052179527 -2.29850407188e-22)
(0.0260613486653 0.022609934135 6.87280402306e-21)
(0.0274216032722 0.0153381862097 -9.32771469641e-21)
(0.0274216032722 -0.0153381862097 -1.28211414184e-20)
(0.0289212070505 0.0206427341687 6.5103110989e-21)
(0.0289212070505 -0.0206427341687 -1.94177994146e-22)
(0.0270957824583 0.0161727523136 -3.51738024219e-21)
(0.0270957824583 -0.0161727523136 -7.42104351392e-21)
(0.0289488557825 0.0169914746062 2.12925405186e-21)
(0.0289488557826 -0.0169914746062 1.60203832392e-20)
(0.0264019197632 0.0120515868349 -3.76349590697e-21)
(0.0264217929888 -0.0120364017198 0)
(0.0234315471051 -0.00259697592356 -2.40306454812e-21)
(0.0234244404665 0.00259563339705 0)
(0.0241217438529 -0.0235413649004 1.34293312812e-21)
(0.0241473938135 0.0235492653145 -3.46745073076e-24)
(0.0218513567501 0.0118580945489 1.06596542582e-21)
(0.0218026548859 -0.0118753987415 -7.05252122366e-21)
(0.0238209794136 0.00495051983607 -1.74375419063e-20)
(0.0239257387377 -0.00497571432901 7.74093125293e-21)
(0.00705067916437 -0.0200435693627 -2.21516558333e-22)
(0.00702737303309 0.0200208733997 -4.02185760539e-22)
(0.0223849815849 0.0163493491425 -1.37306161747e-21)
(0.0223713722655 -0.0163633781559 -1.16766334152e-21)
(0.0253059668125 -0.00435587405952 0)
(0.025283016665 0.00432764575889 -1.07423740513e-22)
(0.0261100111669 0.00304214632039 -1.30189199352e-21)
(0.0260605208749 -0.00301401267958 1.09253710952e-22)
(0.0258812531118 -0.00584337553643 0)
(0.0258418861742 0.00573031110936 0)
(0.0274414303771 0.0133714869979 0)
(0.0274465944259 -0.0133690540265 0)
(0.0203236626612 0.0259003125633 1.35023622731e-21)
(0.0203103592049 -0.0259134161365 7.38753941478e-21)
(0.0230860627064 0.0192953134311 -4.26022426966e-21)
(0.0230023392285 -0.0192960642772 -1.3252177689e-20)
(0.0228170454025 0.0201413646565 1.02657727305e-22)
(0.0227248829661 -0.0201616213786 -1.97554315611e-21)
(0.0275073820165 -0.00282778714677 -4.24013959881e-21)
(0.0275115103893 0.00275902741202 2.15734922449e-21)
(0.0213635806715 -0.0151533638449 -8.30537014656e-24)
(0.0213993394519 0.0151549856975 2.65180580141e-21)
(0.0295892963812 0.0199431849148 0)
(0.0295892963812 -0.0199431849148 0)
(0.0280618009127 0.0200304367994 -2.05110688081e-22)
(0.0280618009127 -0.0200304367994 -1.99575507601e-22)
(0.0272929225171 0.0201878075372 -3.32925325273e-21)
(0.0272935942565 -0.0201870693177 0)
(0.0254438050952 0.0142941055719 9.45553387564e-21)
(0.0254514679146 -0.0143000406643 0)
(0.0296017856586 -0.0140724306764 8.95532860475e-22)
(0.0295973257221 0.0140830197734 -2.16869880032e-22)
(0.00919578386089 -0.0170766157004 4.25955668098e-21)
(0.00915562656285 0.0170776963007 0)
(0.0200016052363 -0.0267470300018 -9.11574730227e-22)
(0.0200363562536 0.0267308528884 1.4075538763e-21)
(0.0195254333494 -0.0253792362202 -1.28754238091e-22)
(0.0195389981177 0.0253660990986 5.02742902773e-21)
(0.0215576607503 0.0109003762071 -3.07086798881e-21)
(0.0215138470824 -0.0109197900458 2.08405905637e-21)
(0.00845382831186 -0.0281274427109 1.32591591455e-21)
(0.00844907731176 0.0281181755265 3.89816392416e-21)
(0.0195067194898 -0.014636003336 -1.3774888533e-21)
(0.0108777725677 0.0146473064993 0)
(0.0195074587253 0.0146368846169 6.88727781497e-22)
(0.0108777725677 -0.0146473064993 0)