/*--------------------------------*- C++ -*----------------------------------*\
| =========                 |                                                 |
| \\      /  F ield         | OpenFOAM: The Open Source CFD Toolbox           |
|  \\    /   O peration     | Version:  5.0                                   |
|   \\  /    A nd           | Web:      www.OpenFOAM.org                      |
|    \\/     M anipulation  |                                                 |
\*---------------------------------------------------------------------------*/
FoamFile
{
    version     2.0;
    format      ascii;
    class       volScalarField;
    location    "0/fluid";
    object      Cx;
}
// * * * * * * * * * * * * * * * * * * * * * * * * * * * * * * * * * * * * * //

dimensions      [0 1 0 0 0 0 0];

internalField   nonuniform List<scalar> 
811
(
0.00937799047609
0.00936782136339
0.010309025742
0.0103123106559
0.015870775069
0.0158604700234
0.0263770291828
0.026384952034
0.0168671834618
0.0168643990949
0.0295120812116
0.0295137611595
0.0289346967552
0.0289328730068
0.0274959147159
0.0274959147158
0.0112818206321
0.0112773594703
0.028976572493
0.0289612996248
0.0280036495263
0.0280032306021
0.00832895068971
0.0255670592944
0.025573433622
0.0213334511629
0.0213334511629
0.0253283898976
0.0253505637497
0.0083367000381
0.0247588850443
0.0247633815928
0.00874874291769
0.00877101280393
0.0217689260515
0.0221355275967
0.0217689260515
0.00573657017856
0.00574150299864
0.0261941123079
0.0261979739132
0.0287593376539
0.0288122953352
0.0233562813937
0.0233349669947
0.00769436717472
0.0220968470129
0.0220968470129
0.00613794410228
0.00613794410228
0.0246346256345
0.0246411192887
0.00899258707112
0.00887522175041
0.0233097202437
0.0233000881976
0.00838167970982
0.0289440060644
0.028943036583
0.0238179134384
0.0238245185292
0.0282424665895
0.0282421071965
0.00806169637405
0.00767147572667
0.0275595374099
0.0276548865796
0.0294411857525
0.0294402243753
0.0263832210739
0.0263918260039
0.00751154427343
0.00765421218494
0.018260476814
0.0182514299285
0.00787703518052
0.00773946478767
0.0277634019424
0.0277634019423
0.028737622058
0.028792299822
0.00765311954185
0.00639928849969
0.00640197026847
0.00644366142447
0.00639731826363
0.0214893198096
0.0215485476397
0.00839630196743
0.00640642225385
0.00634540509623
0.00766342192496
0.0186331873154
0.0186312894392
0.00768687419534
0.00635885323749
0.00639258487195
0.00633016219654
0.00558539581999
0.00558539581999
0.00751330057702
0.00757287138489
0.00751355824555
0.0075085810902
0.0225490666398
0.0225364064261
0.0218479132671
0.0218471842847
0.00811431370227
0.0210071174947
0.021014419376
0.00628535963014
0.029449912189
0.0294507161463
0.0294677314518
0.0294509030108
0.0269926259563
0.0270016410597
0.0260915949296
0.0261755763507
0.0252941571221
0.0252288869076
0.00573230701209
0.0256058714393
0.0256146050352
0.0237159376099
0.023743218889
0.0197714255036
0.019769369078
0.0223482781066
0.0223715809136
0.0268300995996
0.0269091129069
0.00728315241005
0.0183710911186
0.0184002826047
0.0295137611595
0.0295120812116
0.0288280062519
0.0288109948864
0.0238129635138
0.023901635657
0.00834978652717
0.00569367498829
0.029500289106
0.00570776024691
0.00570566509043
0.00835968167681
0.00575000586703
0.00835968167682
0.00570566509042
0.00836141107799
0.029500289106
0.00630401983751
0.0224400874764
0.0224730019023
0.0224791099538
0.0225023435279
0.0063671014746
0.0222621700022
0.0222792060597
0.00622532241303
0.00622532241303
0.0267953129647
0.0267975659373
0.0224613196833
0.022454060638
0.0231232061994
0.0231239146511
0.00966169918069
0.0096540042428
0.0206050304237
0.0206030165817
0.00558275319103
0.00558275319103
0.0251647548823
0.025164610522
0.0232449944804
0.0232504128584
0.0153387392517
0.0153387392516
0.0292476938585
0.0292472807149
0.0226993304526
0.0226604921148
0.0275323890778
0.0276614120528
0.00734022734171
0.0231921803834
0.0232152500451
0.0177905701223
0.0177977916929
0.0273068371768
0.0273864273574
0.00634192559585
0.025960219372
0.0259600772322
0.0294152055651
0.0294152055651
0.0219306823238
0.021936901068
0.0178063548383
0.0178063548383
0.0252064016518
0.0252076391605
0.00776409824925
0.0077261125582
0.00772187804519
0.00772367246414
0.00559084082994
0.00604402968635
0.00601954778117
0.0237291772353
0.0237284777377
0.0243621145627
0.0243562708848
0.00941200222517
0.00940061876563
0.0241765707985
0.024212595716
0.0189115370129
0.018940304496
0.0250859439706
0.0251095200902
0.00775472909375
0.00777622020067
0.00559277400781
0.0290142075466
0.029009703221
0.0260684756723
0.0260344167975
0.0196772764101
0.019675214971
0.0221560299777
0.022248997435
0.0117875260128
0.0117874963095
0.0124800001263
0.0124800001263
0.0144634312648
0.0144634312648
0.0287836407478
0.0287836407478
0.00714089284386
0.00714522142301
0.021900494814
0.0219591278402
0.0151001476554
0.0151000860599
0.0215304547121
0.0215128450925
0.0144777520381
0.0144777520381
0.00705200572512
0.00704105218504
0.0230019952294
0.0230019952294
0.00633307078642
0.0124886076232
0.0124886076232
0.0289115719908
0.0289119875193
0.0232430898531
0.0231863034395
0.0225525040129
0.0224810170083
0.00632173428791
0.0213267130789
0.0213287704567
0.00774180569905
0.00776032343758
0.016738403944
0.016738403944
0.0272123949115
0.0273059552704
0.00839082201541
0.00829535857451
0.0216093088313
0.0216831635944
0.0172544035622
0.017252431939
0.0234772350439
0.0235472255849
0.0294923207382
0.0294923207382
0.00567781212755
0.0130493491317
0.0130497305756
0.0171939523828
0.017182926975
0.0247349742305
0.0247349742305
0.00838927631377
0.00838520119234
0.0138786564776
0.0138782865942
0.0215561376242
0.0216388522856
0.0101215859116
0.0101215859116
0.0139037663857
0.0139037663857
0.0281471413717
0.0281517145959
0.0232562584155
0.023271652675
0.00963040875624
0.00963040875623
0.0172887028456
0.0172859476674
0.0295063362989
0.0295063362989
0.0186320187529
0.0186242019083
0.0169312990381
0.0169238927513
0.0111203986097
0.0111203680035
0.0270234696377
0.0270651949862
0.0290832001713
0.0290828459834
0.0265419090959
0.0265575891171
0.0279733817331
0.0279865634345
0.011907593716
0.0119071353222
0.01885941965
0.0188516493803
0.0166707961835
0.016661603592
0.00566841561389
0.0280015838068
0.0280005981582
0.0152437795862
0.0152456475293
0.0143437586889
0.0143460046627
0.0116789133206
0.0117038735304
0.012563990583
0.0125616868506
0.00547297305483
0.0224824886347
0.0225791291791
0.0267986746416
0.0268350636462
0.00760501780522
0.00757472805886
0.00547459208126
0.023313203508
0.0233603578957
0.0205946453406
0.0206177889345
0.0157407815052
0.0157407211476
0.013068967144
0.013068967144
0.0216722367689
0.0216701956295
0.0222765570806
0.0222703866697
0.0230555885939
0.023132467445
0.0186587825268
0.018672661991
0.00906183293736
0.008250630213
0.0090362938574
0.00817001570557
0.0169644310193
0.0169631045706
0.027927791312
0.0279668424049
0.0287654793845
0.0287628370409
0.0200852345559
0.0200617920704
0.0233543260552
0.0233334918377
0.0202996385236
0.0202993029356
0.0235721024962
0.0235105969418
0.00751207515306
0.00754097816907
0.0176227982666
0.0176157449337
0.0278385366368
0.0278385366368
0.00757045877186
0.00756186544847
0.00757193756673
0.0189279182769
0.0189636389737
0.0275021254617
0.0275099485246
0.0212780457136
0.0212724629809
0.0167291874849
0.0167178140197
0.00991418343817
0.00989388431759
0.0210806067472
0.0211099485037
0.0208885218287
0.0209412958222
0.00608473351408
0.0276066133446
0.0276606567732
0.00761110817543
0.027378067315
0.0273739391711
0.0203670482853
0.0203649423737
0.00609630400837
0.00550767509386
0.00550911079204
0.0222404339863
0.0222986112182
0.0240317581312
0.0240323156363
0.0266134572897
0.0266134572898
0.0246300079817
0.0245821731537
0.0267880844435
0.026746451004
0.0117654352079
0.0117698052928
0.00552409064747
0.00552409064747
0.0217347895689
0.0217006778577
0.0126592955364
0.0126597402573
0.0246231490746
0.0246241975735
0.00556757135758
0.00555343930555
0.00893752546841
0.00894467500841
0.00700964988673
0.0228526935616
0.0228213766471
0.0242802855034
0.0242781488472
0.0208961895106
0.0208344222207
0.00741214629203
0.00736716669364
0.0241715417078
0.0241817840022
0.00867604061673
0.0086568652145
0.0295814513466
0.0296135766059
0.0208116955289
0.0208167318728
0.0280885950147
0.0281275329382
0.028236709807
0.0282407849071
0.0152597679051
0.015270278285
0.0143630608094
0.0143630608094
0.00701279914767
0.024165782644
0.0241413941823
0.00989997196444
0.00990664542289
0.0274775940368
0.0274779584376
0.0223224463771
0.0223591071328
0.0244684049404
0.0245047406368
0.0247598878775
0.0247898267568
0.00952905144967
0.00953225824138
0.00952290967294
0.00962639158512
0.0253297466555
0.025333415994
0.024726777602
0.0247156258485
0.00898342317332
0.00897580150772
0.0185739977116
0.0185808686727
0.0229980911139
0.0230332531111
0.0294638588723
0.029463799152
0.0265661801752
0.0265603429946
0.0188002536058
0.0188002536057
0.00603885057427
0.00869530301059
0.00870921980883
0.0294883954126
0.0294857851573
0.0208094527577
0.0207915352048
0.0255653559199
0.0256515750296
0.0247855306926
0.0247751360823
0.0261958176672
0.0262871615756
0.0289457623271
0.0289132730989
0.0234894003193
0.0234698586724
0.0253673015793
0.0253743683632
0.0256953058793
0.0257154487378
0.0295370785495
0.0295370785495
0.0253193372297
0.0253222145689
0.00844302083895
0.00604224290227
0.00847994333775
0.00551609502444
0.00547615978402
0.0181346351531
0.018132711741
0.0238012895105
0.023699257326
0.0245951016003
0.024718339752
0.0260420323189
0.0260613486653
0.0274216032722
0.0274216032722
0.0289212070505
0.0289212070505
0.0270957824583
0.0270957824583
0.0289488557825
0.0289488557826
0.0264019197632
0.0264217929888
0.0234315471051
0.0234244404665
0.0241217438529
0.0241473938135
0.0218513567501
0.0218026548859
0.0238209794136
0.0239257387377
0.00705067916437
0.00702737303309
0.0223849815849
0.0223713722655
0.0253059668125
0.025283016665
0.0261100111669
0.0260605208749
0.0258812531118
0.0258418861742
0.0274414303771
0.0274465944259
0.0203236626612
0.0203103592049
0.0230860627064
0.0230023392285
0.0228170454025
0.0227248829661
0.0275073820165
0.0275115103893
0.0213635806715
0.0213993394519
0.0295892963812
0.0295892963812
0.0280618009127
0.0280618009127
0.0272929225171
0.0272935942565
0.0254438050952
0.0254514679146
0.0296017856586
0.0295973257221
0.00919578386089
0.00915562656285
0.0200016052363
0.0200363562536
0.0195254333494
0.0195389981177
0.0215576607503
0.0215138470824
0.00845382831186
0.00844907731176
0.0195067194898
0.0108777725677
0.0195074587253
0.0108777725677
0.0160738462096
0.0160738462096
0.0053820222378
0.00538408021627
0.0251351834765
0.0251494164545
0.00793132918196
0.00793183242402
0.0134403580827
0.0134370024726
0.00539121112006
0.00538073044955
0.0160988342349
0.0160974730488
0.0296334546998
0.0296334546999
0.0264954352851
0.0264801649052
0.0136314779027
0.0136314779027
0.0194302705353
0.0194302705354
0.0108779943073
0.0108777725677
0.0267954205358
0.0267428868065
0.0247392175188
0.0246914329031
0.0260610187023
0.0260656340943
0.0217430733415
0.0217430733415
0.01014682605
0.0101401119084
0.0291243191039
0.0291243191039
0.0102253654325
0.0102519940096
0.0104111779222
0.0104309418751
0.00963512882587
0.00967112707197
0.0273616733509
0.0273668448368
0.0260357405015
0.0261110453154
0.0282679735716
0.0282679735716
0.0101475953328
0.0101440732752
0.0153261106018
0.0153261106018
0.0274147990153
0.027427854062
0.00879619147713
0.0111261232594
0.0111516776413
0.0240117435663
0.0239567587943
0.0156413116865
0.0156430946889
0.00883239890868
0.0268888992865
0.0270194519054
0.00757131905632
0.00757500224545
0.013924393535
0.0139233749885
0.0282357740269
0.0282386688784
0.0243145399803
0.0243145399803
0.0222138512223
0.0222131283529
0.0116093031283
0.0116093031283
0.0142140833808
0.0142108821931
0.00936338669007
0.00934492259999
0.0112972870707
0.0113226204651
0.011618231333
0.0116184460544
0.0104207617245
0.0104214362433
0.0166834479145
0.0166797155215
0.023442719053
0.023442719053
0.025073566514
0.0249959676659
0.0275279506038
0.0275391673618
0.00934783101197
0.00935749410811
0.0157590820529
0.0157609186547
0.021425790435
0.021413596393
0.012970279146
0.0129714292322
0.0250775851692
0.0250908368621
0.0212226337021
0.0213015323209
0.0126673747628
0.0126708613377
0.0290403640937
0.0290348937877
0.0277292790109
0.0277418969926
0.00600165626562
0.00596209495679
0.0153642206793
0.01536561449
0.0290811148855
0.0290819238587
0.0290713359816
0.0291037384009
0.00871123045354
0.00871981856577
0.0113187926868
0.011315026734
0.0202072691551
0.0202062981973
0.0244804123377
0.0245216845629
0.0262250858262
0.0262830988729
0.0198568471033
0.019855867276
0.0245844050014
0.0245129636031
0.0258351547832
0.0258328604696
0.0138691895695
0.0138717785127
0.0156962640282
0.0157080021372
0.00719602020701
0.00719654952165
0.0267221023494
0.0267149578357
0.013042637494
0.0130399675422
0.0242301293395
0.0242650708917
0.0281727133799
0.0281782670457
0.013099471677
0.0130990342927
0.0260639661146
0.0260509524036
0.00705221825946
0.0070629604308
0.00594728686969
0.0059492395373
0.0128277653793
0.0128273234981
0.00667679070314
0.00669531245026
0.00902406395858
0.00903244460331
0.00669219254127
0.00672204966942
0.00601757964512
0.00599757047259
0.0130814258494
0.0130814258494
0.0090097419759
0.00912923527169
0.025801966375
0.0258965693958
0.0139158456309
0.0139158456309
0.0143373625032
0.0143373625032
0.0067808134086
0.00680868685068
0.00588676709146
0.00589676505254
0.013968049088
0.013968049088
0.0059163790209
0.00593200220364
0.00814901434971
0.00816609097361
0.0259306218906
0.0259378736184
0.00812269122552
0.00826219733846
0.00672123427353
0.00673822910455
0.0235003019082
0.0235517756708
0.0243518587172
0.0243817030379
0.0255120594232
0.0254103444359
0.025960366132
0.0259679524268
0.0267211224639
0.0267240425417
0.029832662903
0.0291660322617
0.0297964351448
0.0297963757567
)
;

boundaryField
{
    back
    {
        type            wedge;
    }
    front
    {
        type            wedge;
    }
    top_channel
    {
        type            calculated;
        value           nonuniform List<scalar> 4(0.0299988576919 0.0299988576919 0.0299988576919 0.0299988576919);
    }
    wall_outer
    {
        type            calculated;
        value           nonuniform List<scalar> 
23
(
0.0299988576919
0.0299988576919
0.0299988576919
0.0299988576919
0.0299988576919
0.0299988576919
0.0299988576919
0.0299988576919
0.0299988576919
0.0299988576919
0.0299988576919
0.0299988576919
0.0299988576919
0.0299988576919
0.0299988576919
0.0299988576919
0.0299988576919
0.0299988576919
0.0299988576919
0.0299988576919
0.0299988576919
0.0299988576919
0.0299988576919
)
;
    }
    bottom_channel
    {
        type            calculated;
        value           nonuniform List<scalar> 4(0.0299988576919 0.0299988576919 0.0299988576919 0.0299988576919);
    }
    fluid_to_core
    {
        type            calculated;
        value           nonuniform List<scalar> 
56
(
0.0252035812944
0.0252035812945
0.00499980961532
0.00499980961532
0.00499980961532
0.00499980961532
0.00499980961532
0.00499980961532
0.00499980961532
0.00499980961532
0.00499980961532
0.0194382037189
0.019438203719
0.0213597780147
0.0213597780147
0.0136758967231
0.0136758967231
0.0155961139441
0.0155961139441
0.00792340060364
0.00792340060365
0.00983874048986
0.00983874048987
0.0271257174147
0.0271257174147
0.00499980961532
0.00499980961532
0.00499980961532
0.00499980961532
0.00499980961532
0.00499980961532
0.00499980961532
0.00499980961532
0.00499980961532
0.00499980961532
0.00499980961532
0.00499980961532
0.00499980961532
0.00499980961532
0.00499980961532
0.00499980961532
0.00499980961532
0.00499980961532
0.00499980961532
0.00499980961532
0.00499980961532
0.0232815885754
0.0232815885754
0.0175169435776
0.0175169435777
0.0117565931013
0.0117565931013
0.00601300511222
0.00601300511222
0.029047968446
0.029047968446
)
;
    }
    fluid_to_A2
    {
        type            calculated;
        value           nonuniform List<scalar> 
22
(
0.0178133874461
0.0178133874461
0.0126193901383
0.0126193901383
0.0195454066715
0.0195454066715
0.0203992232305
0.0203992232305
0.0203992232305
0.0143502545991
0.0143502545991
0.00999961923064
0.016081637522
0.016081637522
0.00999961923064
0.00999961923064
0.00999961923064
0.00999961923064
0.0203992232305
0.0203992232305
0.0108892922381
0.0108892922381
)
;
    }
    fluid_to_mb1
    {
        type            calculated;
        value           nonuniform List<scalar> 10(0.0289988957689 0.0224991432689 0.0265697725797 0.0281942331349 0.0249453742641 0.0249453742641 0.0281942331349 0.0233210512034 0.0233210512034 0.0265697725797);
    }
    fluid_to_A3
    {
        type            calculated;
        value           nonuniform List<scalar> 
22
(
0.0126193901383
0.0126193901383
0.0178133874461
0.0178133874461
0.0108892922381
0.0108892922381
0.00999961923064
0.00999961923064
0.00999961923064
0.016081637522
0.016081637522
0.0203992232305
0.0143502545991
0.0143502545991
0.0203992232305
0.0203992232305
0.0203992232305
0.0203992232305
0.00999961923064
0.00999961923064
0.0195454066715
0.0195454066715
)
;
    }
    fluid_to_c1
    {
        type            calculated;
        value           nonuniform List<scalar> 
34
(
0.0213991851536
0.00899965730758
0.0213991851536
0.00899965730758
0.0187560947413
0.0116791304409
0.011679130441
0.0187560947412
0.0169861898134
0.0134475325192
0.0169861898135
0.0134475325192
0.0213991851536
0.00899965730758
0.00899965730758
0.0213991851536
0.0152166242991
0.0152166242991
0.00991178882885
0.0205262511565
0.00991178882885
0.0205262511565
0.0213991851536
0.0213991851536
0.0213991851536
0.00899965730758
0.00899965730758
0.00899965730758
0.00899965730758
0.0213991851536
0.0213991851536
0.00899965730758
0.00899965730758
0.0213991851536
)
;
    }
}


// ************************************************************************* //
