/*--------------------------------*- C++ -*----------------------------------*\
| =========                 |                                                 |
| \\      /  F ield         | OpenFOAM: The Open Source CFD Toolbox           |
|  \\    /   O peration     | Version:  5.0                                   |
|   \\  /    A nd           | Web:      www.OpenFOAM.org                      |
|    \\/     M anipulation  |                                                 |
\*---------------------------------------------------------------------------*/
FoamFile
{
    version     2.0;
    format      ascii;
    class       volScalarField;
    location    "0/fluid";
    object      Cy;
}
// * * * * * * * * * * * * * * * * * * * * * * * * * * * * * * * * * * * * * //

dimensions      [0 1 0 0 0 0 0];

internalField   nonuniform List<scalar> 
811
(
0.0220103577937
-0.0220020746732
0.0286331327802
-0.0286407550848
-0.0286852068519
0.0286861357798
0.0183163734767
-0.0183112897755
-0.0286834483617
0.0286902457118
0.0270916952687
-0.0270906940612
0.00673621184273
-0.00675730653843
-0.01804236774
0.01804236774
0.0286710292915
-0.0286695092862
0.0277294411168
-0.0277309287732
0.00664808219596
-0.00667621561294
-0.00301116792034
-0.0261637387605
0.0261679811594
0.0254764038305
-0.0254764038305
0.00995803312497
-0.00993903593623
-0.00700710395905
0.00930197803075
-0.00932356702761
-0.0209407703337
0.0209507451992
0.000999999999985
-8.39766538371e-15
-0.00100000000002
0.00299999999995
0.00700786707461
-0.0268614518561
0.0268585268613
-0.0254286455941
0.0254216712584
0.0176469428018
-0.0176373420163
-0.00807425518043
0.0261390919029
-0.0261390919029
-0.0275088267264
0.0275088267264
-0.0261274382466
0.0261317240358
0.0230177821415
-0.0229828935656
0.0167287691114
-0.0167386517818
-0.00906414778457
-0.0114395265952
0.0114415153223
-0.0267064000409
0.0267106858139
0.00145495661935
-0.00146093870203
-0.0100704323557
-0.00600641700025
-0.0289593091254
0.0290129704808
-0.0122141728262
0.0122161598956
0.0194134622229
-0.019407555113
-0.0239553788374
0.0239868466342
0.0125990497011
-0.012601650795
0.0230948608778
-0.0230553355151
-0.0169949184712
0.0169949184712
-0.0244488069568
0.0244413189559
-0.00203177633677
0.001998556111
0.00600889012261
0.00807648249588
0.00399890829692
-0.0186194435653
0.0186066919437
0.00906421588161
-0.0175257217353
0.0175374627739
-0.00401248027715
0.0118659832708
-0.0118714507659
-2.3053353272e-05
-2.41178494324e-05
-0.0184107725502
0.0184316059575
-0.0267327698874
0.0267327698874
0.0169444599882
-0.0169322090261
0.0160623643023
-0.0160564104574
-0.00412363012311
0.00412133800675
-0.00273864951335
0.00273852247695
0.0100904901695
-0.01779740338
0.0177943925552
-0.0101222075004
0.00584044214878
-0.00585190922706
0.0288903306566
-0.0288929938329
-0.0218628324343
0.0218639101446
-0.0276968412573
0.0277519855388
-0.0108453836056
0.0108874772132
-0.00907076123776
0.0198395901935
-0.0198336022401
-0.0276105850366
0.0275891238762
0.0109642844898
-0.0109624746589
-0.0289628769112
0.0289361836094
-0.0294855946117
0.0295419548174
-0.0104558656562
-0.0275427915033
0.0275454940823
-0.0259191927507
0.0259201767904
0.0294734855511
-0.0294762510184
0.00929274649021
-0.00932137216201
-0.00102072559764
-0.0010228576121
-0.000666666666633
0.000997457890109
0.00499999999996
-0.00500000000001
0.00907084276094
0.00500000000001
-0.00500000000007
0.00099769517993
0.0006666666667
0.0101217019264
-0.0238450680604
0.0238427982227
-0.027957352964
0.027930956375
-0.00807818452697
0.0100101472987
-0.010045136236
0.0294303993983
-0.0294303993983
-0.0210336978477
0.0210348717439
-0.00317974376843
0.00317843092729
0.00140610601576
-0.00140624169291
-0.0294506528142
0.0294416759312
0.0105425536196
-0.0105407529544
0.0287630422817
-0.0287630422817
0.00201200488124
-0.0020097713714
0.0131236241008
-0.0130970596569
-0.0294815387604
0.0294815387604
0.00242035675175
-0.00242728842987
0.0138506211042
-0.013840383801
-0.0243080962546
0.0242992840394
0.0104758673694
0.010166091857
-0.0101949050959
-0.0144860631555
0.0144888045456
-0.0235618932778
0.0235616439884
-0.00600659826195
0.00204090824623
-0.00203869207169
-0.0160079322573
0.0160079322573
0.0050137657342
-0.00501488478826
-0.0255613246222
0.0255613246222
0.00810614325285
-0.0081495389626
0.00807288356331
0.00600831329319
0.00399909747293
0.0019984943461
-0.0110603354624
-0.0220833353151
0.0220579814599
-0.00182042766944
0.00182029608909
0.0181094542207
-0.018091971849
0.0199422270961
-0.0199406726162
-0.0226011835344
0.0226086417935
-0.0282907846362
0.0282931864504
-0.0221850379846
0.0221885754139
-0.0137002102188
0.0137108029424
0.0110603436434
-0.0150791143465
0.0150897951349
0.00796582438755
-0.00799310930025
0.0118147636547
-0.0118129730127
-0.023007321118
0.0229862391074
-0.0105181751122
0.0105179076252
0.0144900925322
-0.0144900925322
-0.0144822222434
0.0144822222434
-0.00966254221982
0.00966254221984
-0.0272633145771
0.027264826144
0.00898488889265
-0.009
0.0105139601072
-0.0105134533088
0.0245210465085
-0.024527780309
-0.0255156789578
0.0255156789578
-0.0220822116095
0.0220664332881
0.0258860422935
-0.0258860422935
-0.00401327087693
-0.0255131873987
0.0255131873987
-0.0017584680064
0.00175151917676
-0.00597380501011
0.00595740224087
0.0184455509035
-0.018445511433
-0.00203322391416
-0.0294459043331
0.0294455811864
-0.026334964698
0.026338692214
0.01042649022
-0.01042649022
-0.0280722370645
0.028119854363
-0.0173769771045
0.0173892266372
-0.0205098623941
0.0204924550213
0.0110173639749
-0.0110229121267
0.00665947626103
-0.00674264241298
-0.0237739818674
0.0237739818674
-0.00700783403612
-0.0140360693035
0.0140375715596
0.0125963890747
-0.0126039371205
0.00141242979751
-0.0014124297975
0.00700713146834
0.00300000000001
0.0140256928717
-0.0140242132047
-0.0214628516891
0.0214378274618
-0.0104370966329
0.0104370966329
-0.0259739073671
0.0259739073671
0.014924640722
-0.0149138844133
-0.0240439217917
0.024048108576
-0.011018086699
0.011018086699
-0.0275778179168
0.02758451899
-0.0102239729234
0.0102239729234
0.0141271594692
-0.0141235141874
0.0141342036102
-0.0141313926061
-0.0109529370133
0.0109526657291
0.0103848860189
-0.0103639257833
0.00311371700251
-0.00311966091706
0.00957707170747
-0.00956395809725
-0.0274270930325
0.0274186691056
0.0294772913934
-0.0294771368818
0.0133106204684
-0.0133068980988
0.0133199261466
-0.0133219836666
-0.00301231498899
-0.0115821198549
0.0115841260654
-0.0125202247101
0.0125156707763
-0.0124735935091
0.0124829242278
0.0125271603113
-0.0125286341779
0.0124870853326
-0.0124782303693
-0.0128828105693
-0.0221146538319
0.0220938304018
-0.0087918896786
0.00878053148973
0.0145866676013
-0.0145722200257
0.0128837261381
-0.0218472276574
0.0218443679388
-0.027481600334
0.0274782563945
0.0109418388069
-0.0109413375857
0.0259674630941
-0.0259674630941
0.0273061741959
-0.0273064447708
-0.00601269219156
0.00601164520277
0.00769999510645
-0.00778401913406
-0.0259385433051
0.0259251577103
-0.0189322991491
-0.0185763078659
0.0189352276471
0.0185921062972
-0.0259419921483
0.0259420872626
-0.0220523077988
0.0220330714544
0.00866816735905
-0.00867781014075
0.028254989077
-0.0282585830269
0.0294898109866
-0.0295160272112
0.0125421608944
-0.0125365781176
-0.00412260490314
0.00411155416502
-0.0254862395258
0.0254915921316
0.0294835817473
-0.0294778332332
0.0104699717975
-0.0104699717975
-0.0116164856942
0.0209238079943
-0.0209430614826
-0.0267768684061
0.0267604544419
0.0048096855934
-0.00493570661991
0.0126467198723
-0.0126387123842
-0.0268094304658
0.0268101650843
-0.012576235772
0.0125803281268
-0.0143250037535
0.014334852412
-0.0198209053777
0.0198104092257
-0.0135381287873
-0.0258313625596
0.0258241101355
0.0116354370971
-0.0266032667762
0.0265972544732
0.0290868047077
-0.0290871233514
0.0135460616328
0.0191165844397
-0.0191092029171
0.00798668571235
-0.00800237477872
-0.015059636908
0.0150463673667
-0.00144145559691
0.00144145559691
-0.00759373941231
0.00748998997532
0.00430401488969
-0.00439404228279
-0.0275207354885
0.0275223530979
-0.0168856042442
0.0168856042442
0.0136244774113
-0.0136120505248
-0.0275185731179
0.027518743117
0.0142397274373
-0.0142460416386
0.0230826051316
-0.0230788980297
-0.0126091244507
0.0126145902203
-0.0121755399374
0.012109660325
-0.0121063011082
-0.0160346596291
0.0160197284127
0.0220893581367
-0.0221081551333
-0.0190167356408
0.0190398570584
0.0132773091722
-0.0132533770351
0.0135251290848
-0.013515855069
-0.0220910064278
0.0220713824207
-0.0159726198898
0.0159684543492
-0.022877161516
0.0228576678002
-0.00337837572411
0.00331004037976
0.0275296513225
-0.0275289027521
0.0275125262537
-0.0275125262537
0.0121763732393
0.0190731893919
-0.0190587676882
0.0274824791612
-0.0274971827288
-0.00190212951542
0.00189610431215
-0.0154128267579
0.0154072775212
0.0115379142607
-0.0114952134249
0.0124940852612
-0.0124570349039
0.0160739008251
-0.0160720603092
-0.0239765224952
0.024
0.0164404646393
-0.016448375337
0.0197164548371
-0.019714378648
-0.0273838049327
0.0273685595127
-0.0291242117232
0.0291299217166
-0.0148112181618
0.0148116955466
0.00129779409828
-0.00129878975909
0.00721532563352
-0.00724216607886
0.0104211599728
-0.0104211599728
-0.0119404093075
-0.0264501636098
0.0264465192858
0.00789660281194
-0.00790616896996
0.0239086942056
-0.023915360927
-0.0243036574524
0.0243058367986
0.024309995151
-0.0243064313261
-0.0234810620818
0.0234844842599
0.0214375761095
-0.0214571321869
0.0113071416513
-0.0113001432924
0.0176090389555
-0.0176040005606
0.0126894032029
-0.0126739912894
0.0179825262592
-0.0179825262592
-0.00357368565215
0.00359289042875
-0.011798681765
0.0119413051716
0.0118170254763
-0.0210049758724
0.020972981099
0.0110116723254
-0.0110171526435
-0.00828736388208
0.00818427422729
0.00493829264058
-0.00500751565463
-0.0226052179527
0.022609934135
0.0153381862097
-0.0153381862097
0.0206427341687
-0.0206427341687
0.0161727523136
-0.0161727523136
0.0169914746062
-0.0169914746062
0.0120515868349
-0.0120364017198
-0.00259697592356
0.00259563339705
-0.0235413649004
0.0235492653145
0.0118580945489
-0.0118753987415
0.00495051983607
-0.00497571432901
-0.0200435693627
0.0200208733997
0.0163493491425
-0.0163633781559
-0.00435587405952
0.00432764575889
0.00304214632039
-0.00301401267958
-0.00584337553643
0.00573031110936
0.0133714869979
-0.0133690540265
0.0259003125633
-0.0259134161365
0.0192953134311
-0.0192960642772
0.0201413646565
-0.0201616213786
-0.00282778714677
0.00275902741202
-0.0151533638449
0.0151549856975
0.0199431849148
-0.0199431849148
0.0200304367994
-0.0200304367994
0.0201878075372
-0.0201870693177
0.0142941055719
-0.0143000406643
-0.0140724306764
0.0140830197734
-0.0170766157004
0.0170776963007
-0.0267470300018
0.0267308528884
-0.0253792362202
0.0253660990986
0.0109003762071
-0.0109197900458
-0.0281274427109
0.0281181755265
-0.014636003336
0.0146473064993
0.0146368846169
-0.0146473064993
0.0146474701548
-0.0146474701548
-0.0249402425894
0.0249406761377
-0.0296262141345
0.0296308495235
0.0296001489081
-0.0296011808181
-0.0103617486914
0.0103630564375
0.015062582484
-0.0150575684952
-0.0253785503025
0.0253786344598
0.00399173382802
-0.00399173382795
-0.00638427901503
0.0063093206912
-0.0296358122343
0.0296358122343
0.0296436552448
-0.0296436552448
-0.0253710502567
0.0253527014592
0.00330594736975
-0.00334352153413
-0.00301176346213
0.00300478854285
0.0159229815821
-0.0159308366703
0.00699999999999
-0.00700000000001
0.0141237912065
-0.0141187683374
0.0189258836289
-0.0189258836289
0.0118718648578
-0.0118735259543
0.0133119861565
-0.0133076178909
0.0180000639352
-0.018
0.0123458873677
-0.0123435012843
-0.0251781619253
0.0251761855711
0.0189785977204
-0.0189785977204
-0.0258971486567
0.0258714794793
-0.014132819912
0.014132819912
0.0058587166842
-0.00592878515504
-0.0109105533148
0.0118030744001
-0.0118049919902
-0.0031899881702
0.00317961045015
-0.0133183954096
0.0133133491081
0.0109296817671
-0.0251030432635
0.0250932202831
-0.0281166411672
0.0281169472938
-0.0116836515215
0.0116944600934
-0.00443603147876
0.00436205127324
0.0251422567479
-0.0251422567479
-0.00174063371803
0.00174049919077
0.0141336235647
-0.0141336235647
-0.0108781452817
0.010879981967
0.0142976017569
-0.0142889107524
0.0133267112009
-0.0133274695665
0.0258696657432
-0.0258877175157
-0.0267579404629
0.0267340846255
0.0118687102395
-0.0118792581547
-0.0250044013987
0.0250044013987
-0.00598165226095
0.00590531215291
-0.00750675054602
0.00748633713225
-0.0257066622231
0.0257018087722
-0.0118007859743
0.011796291782
0.0167663643469
-0.0167734568707
0.0116965977442
-0.011686377585
-0.0212228902619
0.0212227852074
-0.0230229514132
0.0229971561057
0.0108772731734
-0.0108761763128
-0.0132890691978
0.013301681
-0.00835798280132
0.00834438257227
-0.0201117904055
0.020086432706
0.0258912510127
-0.0258911551196
0.00483004400069
-0.00484155343854
-0.0229477939123
0.022927846084
0.0290363755393
-0.0290466804371
0.0267261210503
-0.0267427551364
-0.0141129528715
0.0141176927761
-0.0282393178717
0.028222713012
0.0112053194831
-0.0111691498842
-0.0133003961969
0.0133051480059
-0.00671863566492
0.00661992256951
0.0208159810129
-0.0208147909279
-0.0131717746032
0.0131821224647
0.0267648494932
-0.0267641154131
0.0290410778238
-0.0290421447908
-0.0139146597953
0.0139170911665
0.0131808889421
-0.0131703808234
-0.0291432785049
0.0291221404988
0.0138004305127
-0.0137876997085
0.0283038446486
-0.0283036830047
0.00477612962548
-0.00484804819128
-0.0130991306579
0.0131069205135
-0.0256872547795
0.025687616634
0.0291171100975
-0.0291169548524
-0.0157067770003
0.0157154952817
-0.0152224227124
0.0152275373761
-0.0242499759918
0.0242569219911
0.0143925180386
-0.014380604928
0.0268294641239
-0.0268294641239
-0.0248252490416
0.0248491289417
-0.0291092061253
0.0291710567057
0.0268226598278
-0.0268226598278
-0.0291130821892
0.0291130821892
-0.0148082081754
0.0148239129361
-0.0159495208873
0.0159540399186
0.0283024195481
-0.0283024195481
-0.0240124729105
0.0240161131389
-0.0153217855323
0.0153310994578
0.0135268899316
-0.0135244670432
-0.0247213096506
0.0247491380099
-0.025250972535
0.0252543577395
-0.0208448976696
0.0208343729407
-0.0206369265469
0.0206330515532
0.0282751080152
-0.0282080817663
0.0150121509711
-0.0150180036747
0.0147575162008
-0.014755487247
5.38150690381e-14
1.35006242526e-14
0.00196476561828
-0.00196575883729
)
;

boundaryField
{
    back
    {
        type            wedge;
    }
    front
    {
        type            wedge;
    }
    top_channel
    {
        type            calculated;
        value           nonuniform List<scalar> 4(0.027375 0.029125 0.025625 0.023875);
    }
    wall_outer
    {
        type            calculated;
        value           nonuniform List<scalar> 
23
(
-0.012
0.012
0.00600000000005
-0.00599999999995
-0.016
0.016
-0.00999999999998
0.01
-0.022
0.022
0.00800000000004
-0.00799999999996
0.018
-0.018
0.02
-0.02
-0.014
0.014
0.00400000000005
-0.00399999999994
6.04999451653e-14
0.00200000000006
-0.00199999999994
)
;
    }
    bottom_channel
    {
        type            calculated;
        value           nonuniform List<scalar> 4(-0.027375 -0.029125 -0.025625 -0.023875);
    }
    fluid_to_core
    {
        type            calculated;
        value           nonuniform List<scalar> 
56
(
0.03
-0.03
-0.00300000000007
-0.027
-0.0110000000001
-0.023
-0.019
-0.015
-0.00700000000007
0.00299999999992
0.000999999999918
0.03
-0.03
-0.03
0.03
0.03
-0.03
-0.03
0.03
0.03
-0.03
0.03
-0.03
0.03
-0.03
0.027
0.00699999999993
0.015
0.0109999999999
0.023
0.019
0.029
-0.029
0.00499999999993
0.0129999999999
0.017
0.00899999999994
0.025
0.021
-0.00100000000008
-0.025
-0.021
-0.017
-0.013
-0.00900000000008
-0.00500000000007
0.03
-0.03
0.03
-0.03
0.03
-0.03
-0.03
0.03
0.03
-0.03
)
;
    }
    fluid_to_A2
    {
        type            calculated;
        value           nonuniform List<scalar> 
22
(
0.015
0.025
0.025
0.015
0.025
0.015
0.016
0.024
0.02
0.025
0.015
0.02
0.015
0.025
0.022
0.018
0.016
0.024
0.018
0.022
0.025
0.015
)
;
    }
    fluid_to_mb1
    {
        type            calculated;
        value           nonuniform List<scalar> 10(0 0 -0.001 -0.001 -0.001 0.001 0.001 0.001 -0.001 0.001);
    }
    fluid_to_A3
    {
        type            calculated;
        value           nonuniform List<scalar> 
22
(
-0.015
-0.025
-0.025
-0.015
-0.025
-0.015
-0.016
-0.024
-0.02
-0.025
-0.015
-0.02
-0.015
-0.025
-0.022
-0.018
-0.016
-0.024
-0.018
-0.022
-0.025
-0.015
)
;
    }
    fluid_to_c1
    {
        type            calculated;
        value           nonuniform List<scalar> 
34
(
0.00699999999999
-0.00699999999999
-0.007
0.007
0.01
-0.01
0.01
-0.01
-0.01
0.01
0.01
-0.01
0.009
-0.009
0.009
-0.009
0.01
-0.01
0.01
-0.01
-0.01
0.01
0.00299999999998
-0.00300000000001
0.000999999999977
0.00100000000002
0.00300000000001
0.00500000000001
-0.00499999999998
0.00499999999998
-0.00100000000002
-0.000999999999977
-0.00299999999998
-0.00500000000001
)
;
    }
}


// ************************************************************************* //
