/*--------------------------------*- C++ -*----------------------------------*\
| =========                 |                                                 |
| \\      /  F ield         | OpenFOAM: The Open Source CFD Toolbox           |
|  \\    /   O peration     | Version:  5.0                                   |
|   \\  /    A nd           | Web:      www.OpenFOAM.org                      |
|    \\/     M anipulation  |                                                 |
\*---------------------------------------------------------------------------*/
FoamFile
{
    version     2.0;
    format      ascii;
    class       volScalarField;
    location    "0/fluid";
    object      Cz;
}
// * * * * * * * * * * * * * * * * * * * * * * * * * * * * * * * * * * * * * //

dimensions      [0 1 0 0 0 0 0];

internalField   nonuniform List<scalar> 
811
(
3.49261738394e-21
0
0
0
0
8.59924174704e-21
0
8.60593109161e-21
-7.87979591617e-21
-9.93406768828e-23
0
0
0
0
-4.60398870902e-21
-4.60032485168e-21
0
4.87751126924e-23
-6.300203615e-21
1.53688648674e-21
0
1.23709057121e-21
0
-1.27718509262e-20
-6.37586808705e-21
0
0
3.53422871451e-21
0
0
1.10049106415e-20
0
-4.57818299798e-23
1.7539971899e-21
-5.03418574744e-21
1.08813188899e-22
-6.36018071159e-21
2.54005858335e-21
0
-1.3401865839e-20
-2.48314407098e-21
2.32392462899e-20
0
7.22887127993e-21
0
-5.82879457539e-23
-8.5688334391e-22
0
0
0
0
7.56821143846e-22
-4.61840134172e-21
-5.63998858305e-23
0
-2.33581255011e-20
-5.83961859026e-23
0
0
-3.42736516518e-21
-2.05207030732e-20
1.6968429445e-20
-9.56910523241e-22
-5.62235636323e-23
-2.24707691742e-23
0
-5.87811589269e-21
2.18294407538e-22
2.05989673176e-22
1.4646363253e-20
1.61806393517e-21
1.73390065453e-21
0
-1.18708543335e-20
0
1.93061367521e-21
-2.29962798253e-23
-9.48221261159e-21
6.40335452141e-21
1.42840474226e-21
-1.43412410046e-21
2.24385043984e-23
0
2.35899159985e-21
1.09760841491e-21
-2.39291702409e-21
0
0
0
0
0
1.86505300402e-21
-7.26839845987e-21
-9.52670134522e-23
0
2.67330954652e-23
0
-7.28771504855e-22
2.11310924625e-22
-2.11310924625e-22
1.0910345874e-21
2.41710419255e-21
0
-3.69450087159e-22
0
0
0
0
-4.42279675308e-23
0
-9.08607392811e-22
0
0
2.06131951538e-22
-1.18918367696e-21
0
0
0
-1.04156806093e-22
9.61570525789e-21
0
6.09356735833e-21
0
-9.87025763409e-23
-1.86298027062e-21
6.98247602225e-22
-1.59176896062e-21
0
0
6.3513524819e-21
0
-6.70232867187e-21
1.63528839871e-21
-5.81481744532e-23
-6.7696801637e-21
0
4.49563721457e-22
-2.72954386536e-21
-1.73017985928e-21
5.29275469211e-21
1.8203963868e-21
9.40302445839e-22
-2.42650652447e-22
4.17706621198e-22
0
2.65116111827e-21
-2.37809555448e-22
1.10283689732e-22
-4.08837610754e-22
0
0
0
0
0
8.41798705942e-21
8.56512104957e-21
9.51803772152e-22
-1.11777692643e-22
0
0
-1.89080025229e-20
0
0
0
-1.21101468817e-20
-1.04220631506e-21
0
-1.16529408333e-21
6.71135797257e-21
-5.87563621091e-23
-5.32315468568e-22
-1.17046611544e-21
1.27878524021e-21
0
0
0
8.88077920649e-21
0
7.63239965836e-21
0
-1.02448998757e-22
0
5.68059740632e-21
0
4.28399764989e-21
1.06929691332e-21
0
4.02595727923e-22
1.04270948793e-22
-9.72060349535e-21
1.82325123187e-21
-6.22111174992e-21
5.46722460972e-21
-1.59591554825e-21
-1.99842521668e-22
9.28001214992e-22
4.31557958147e-21
0
0
0
-1.11262855615e-22
1.42256030773e-21
1.9098609967e-21
1.02665826433e-22
4.14618260182e-21
5.76286675481e-22
2.26970953758e-21
-4.69681179298e-21
3.33369494886e-22
-2.4967990965e-22
0
0
0
0
-9.70593644377e-23
6.62889373141e-21
0
0
0
-3.16142156788e-21
-1.03816060034e-22
0
3.1413165855e-21
9.5737631099e-22
4.36467682487e-21
0
0
1.67394228507e-21
2.0743181276e-22
2.55185130911e-21
1.07866264809e-20
-1.05929532472e-22
-2.15650795721e-22
-9.74410861674e-23
5.27648470856e-21
0
0
-3.77820953049e-21
0
6.51966025642e-21
1.30393205128e-20
1.05346533774e-20
1.05346533776e-20
5.67869158137e-21
3.75654664701e-22
-1.0551569298e-21
3.20616469352e-21
8.19153809894e-22
-9.87154531912e-21
-1.47522828128e-20
5.50316825698e-21
0
9.66287632111e-21
1.2352939603e-21
6.01481765845e-23
-5.01361706409e-21
-6.30173725787e-21
0
-5.55476053906e-21
-5.55476053906e-21
0
-2.3851924961e-21
6.86273765335e-21
0
-1.04485895576e-21
1.40315522179e-21
-1.00540903519e-21
0
1.05630681941e-22
1.57726601298e-21
-4.41023708358e-21
-7.37299264394e-22
3.1559171598e-21
-1.16745949784e-20
-1.116142793e-21
1.39928436832e-21
6.93346928543e-22
0
0
0
-6.00469713495e-21
9.61403500602e-23
-9.27571537744e-21
1.64039020371e-21
-1.64039020371e-21
5.83245469304e-23
2.48888697678e-21
4.77547612567e-22
1.02088008334e-22
-1.02808047436e-22
5.54390663411e-22
0
0
0
2.80731741954e-21
-6.73118727931e-22
-4.05497023892e-21
9.4853038321e-23
2.59523149484e-21
0
-2.00378280746e-21
-6.10008920849e-21
0
0
0
9.77472459554e-23
-1.36605693914e-21
0
2.09546405426e-22
1.79940749416e-20
-3.95313097815e-22
-1.10145493722e-21
-6.1013833208e-21
6.61592155613e-22
6.83052513173e-21
7.3694947579e-22
-1.09542274759e-22
-2.0871544661e-25
5.95157603059e-21
0
0
-2.06943670111e-22
-1.38439298742e-20
1.11620801777e-21
-1.74127727777e-20
2.11533462106e-20
-1.69179907866e-21
1.63593918748e-21
9.3580906491e-24
-2.10547144083e-21
6.8464044696e-21
-2.15552588064e-22
1.35005851667e-21
-1.08334842733e-20
-1.36675566521e-21
0
6.08759828082e-21
1.59947233992e-20
0
0
0
0
0
0
-1.05548060295e-23
3.31047487943e-21
1.02093265766e-22
-2.13522494615e-22
2.0377104072e-21
4.203228567e-22
0
-1.0076600395e-21
9.20066743846e-22
0
4.15427622364e-21
-6.43581304742e-24
-8.42900052648e-21
-8.42178753245e-21
-5.73362971151e-21
-5.78826503734e-21
0
-3.68758197695e-24
0
1.60107955029e-20
1.03715401091e-22
-2.61713634355e-21
9.6389804541e-23
0
-4.51558792817e-21
0
2.5719466469e-22
-1.04604583385e-22
-6.21725001408e-21
-3.73366973195e-21
0
0
-9.6978906081e-23
1.06903552628e-20
6.71577853093e-21
-1.03893855204e-21
1.43403559043e-20
-7.3282269216e-22
-1.27523331825e-21
-1.07989904595e-21
0
7.6340895115e-22
3.16798293348e-22
0
-3.86937135056e-21
7.34506336882e-21
7.56764352308e-21
0
-4.44333420179e-22
5.52551052292e-23
-3.46179851298e-21
2.65217163823e-21
0
0
-1.14164485636e-21
1.24439645595e-21
-6.44544939723e-22
8.79100912075e-21
1.25989964298e-21
-1.33006677595e-21
-1.42078508026e-20
0
0
1.09842374901e-20
-2.41481942509e-22
-3.07396951691e-21
1.00634896308e-22
0
-1.80840333226e-20
-1.9601856516e-21
0
5.61931183101e-21
2.10658577301e-23
0
-3.0833241295e-23
-1.03344140293e-21
1.18075652788e-21
3.4383706913e-21
0
2.15999866001e-21
6.37031446958e-21
-9.91596452181e-23
-1.03821919464e-22
9.99042084894e-21
7.81484680246e-22
-3.83305408184e-21
6.36586691935e-21
2.37830282058e-23
0
4.71842915288e-21
6.33275288859e-21
4.1307492142e-22
0
1.02760132509e-22
-9.67094164843e-23
0
2.26772221877e-22
5.26959805871e-23
-6.57317466765e-22
3.96848365144e-22
1.21418570626e-21
8.27001131436e-21
1.10515678199e-22
-9.1993202525e-22
0
1.10592155175e-22
-5.7310143021e-23
1.9531086294e-22
-1.10218033936e-22
-9.67951412435e-22
4.85824588886e-23
-5.93784558287e-21
0
0
0
0
1.01283420744e-21
-1.93125395492e-21
-8.4637135453e-21
5.92652952057e-21
0
9.70295936833e-23
7.21714643991e-21
7.21714643991e-21
4.7370673046e-23
-1.25517653009e-20
0
0
0
-1.25829672595e-21
1.00906031285e-21
0
5.05196545021e-21
-1.39433317391e-20
0
-1.07988161831e-21
5.80235230318e-21
0
0
5.66985059009e-23
4.95272797099e-23
-1.65046913098e-20
-1.18463705026e-20
-1.64747853049e-20
8.75159386446e-22
-5.13054219334e-23
0
0
-2.09102110066e-22
2.49311175736e-21
2.23670844348e-22
-2.0980572418e-22
-2.17040684958e-22
-1.9637848643e-22
-9.6913083884e-23
1.10437585908e-22
8.08039784249e-22
-2.76261796397e-22
1.23881929169e-21
-1.62615925378e-23
-1.65779453718e-21
9.8288166139e-22
0
0
0
6.78673029233e-21
0
-2.48073435617e-20
2.10169768991e-21
0
-2.14025659696e-22
-2.11923174502e-21
8.48446138108e-23
-2.2104164256e-21
-1.24260947313e-21
1.37463063284e-20
-8.64752964608e-21
0
0
0
-5.19069980176e-21
0
4.96827955704e-23
1.51442161482e-21
-3.76266652624e-21
0
3.00858896319e-22
7.7585030564e-22
-6.62319549983e-23
-1.65117598098e-21
-2.22563892875e-22
-9.80913837539e-21
0
-2.29850407188e-22
6.87280402306e-21
-9.32771469641e-21
-1.28211414184e-20
6.5103110989e-21
-1.94177994146e-22
-3.51738024219e-21
-7.42104351392e-21
2.12925405186e-21
1.60203832392e-20
-3.76349590697e-21
0
-2.40306454812e-21
0
1.34293312812e-21
-3.46745073076e-24
1.06596542582e-21
-7.05252122366e-21
-1.74375419063e-20
7.74093125293e-21
-2.21516558333e-22
-4.02185760539e-22
-1.37306161747e-21
-1.16766334152e-21
0
-1.07423740513e-22
-1.30189199352e-21
1.09253710952e-22
0
0
0
0
1.35023622731e-21
7.38753941478e-21
-4.26022426966e-21
-1.3252177689e-20
1.02657727305e-22
-1.97554315611e-21
-4.24013959881e-21
2.15734922449e-21
-8.30537014656e-24
2.65180580141e-21
0
0
-2.05110688081e-22
-1.99575507601e-22
-3.32925325273e-21
0
9.45553387564e-21
0
8.95532860475e-22
-2.16869880032e-22
4.25955668098e-21
0
-9.11574730227e-22
1.4075538763e-21
-1.28754238091e-22
5.02742902773e-21
-3.07086798881e-21
2.08405905637e-21
1.32591591455e-21
3.89816392416e-21
-1.3774888533e-21
0
6.88727781497e-22
0
-7.16676917116e-21
6.3710172356e-22
0
1.25860731484e-21
1.00951209045e-20
-9.07128816447e-22
0
0
-4.61258429944e-22
0
0
0
-5.18540852222e-22
-4.0644458793e-22
-1.07161712892e-21
2.16544095649e-22
1.080533383e-22
1.1738227263e-20
-4.18655868402e-22
4.18655868402e-22
6.60943925152e-22
-2.19670041395e-21
0
0
5.47294333823e-21
3.99390771031e-22
0
0
-1.08674333784e-22
-1.29913432711e-20
-7.90830262607e-22
7.90830262607e-22
0
7.8455024855e-22
0
7.8648722397e-21
0
9.63343462858e-22
-3.68677481163e-22
0
1.40341130882e-21
1.11795065944e-22
3.51287765426e-21
-1.34525074918e-20
1.18010712132e-21
9.34745464609e-22
1.03896178932e-21
-1.24780445292e-20
-1.64480321235e-21
4.86231445377e-21
-7.60236885186e-22
3.34260064329e-22
-9.65096366306e-22
-1.30748070118e-21
6.31568440654e-22
8.71079536176e-22
-2.36360423247e-21
5.72794061265e-21
0
0
2.21928060386e-22
1.12678776378e-22
1.05517961236e-21
-1.23517430943e-21
-3.6658008797e-22
-2.21292011355e-22
5.62540835424e-22
-4.63928902252e-22
8.19945452443e-22
2.79668645396e-21
-3.93274147755e-21
-1.36333073433e-21
2.68378217996e-22
1.54056081412e-20
0
0
-4.66669330651e-21
-1.18462904069e-22
-1.02717017477e-22
-2.59530839086e-22
6.47018816222e-22
0
7.94917346947e-22
1.09969719253e-22
4.92704487675e-23
-2.94761711929e-22
-1.03399248132e-22
8.27683234155e-22
1.57849488379e-21
-1.12590717684e-21
-3.84590302339e-22
-9.17898209503e-21
-9.77108892579e-22
1.18455608622e-21
-1.22241450283e-21
-1.59567644307e-21
-1.14494361909e-20
1.39391770344e-24
2.82324899271e-21
2.30926515263e-22
5.96085682848e-22
4.98160878258e-23
0
-9.7783824525e-21
8.07339636517e-22
-8.2083199281e-22
-4.89100650535e-22
6.82801406283e-22
9.49198716193e-24
-1.17217098605e-23
9.1138470841e-22
-6.55132076973e-21
-9.33863643639e-23
-3.11609406726e-22
-6.18399906347e-21
-5.10567576265e-22
-2.16363811515e-21
2.132524217e-20
-1.2927592103e-21
1.2035250122e-21
-6.19906381565e-22
3.68054903354e-22
1.08764849079e-22
7.26503332684e-22
-9.0333872084e-22
-5.56126066709e-21
-1.0278364143e-22
0
-1.07910766577e-20
1.23571899821e-21
7.69494825631e-24
2.43511418573e-21
-1.13704908587e-21
1.39751961501e-21
2.28926088264e-22
0
6.53918685639e-21
5.53515043499e-22
-5.52342647126e-22
7.31286045514e-21
3.2797081067e-22
3.20080711729e-22
5.26596259492e-21
-5.32943049621e-21
7.53594110167e-22
3.53224337811e-21
1.2480876759e-21
9.86439019901e-22
9.19240249039e-22
-3.38010902573e-22
0
5.26464105472e-21
5.57338777274e-24
2.23984589569e-21
2.72189431986e-22
3.16934019819e-22
-2.80584025039e-23
0
2.64165564417e-21
2.55475814703e-21
-2.74708445844e-21
-2.49397515059e-21
1.20040244443e-21
0
5.45195662769e-23
0
-2.91774121029e-22
-2.80242466772e-22
5.01566330539e-23
5.52861430175e-23
5.8751503881e-23
1.09540126311e-22
6.02344812482e-21
-1.93290474559e-25
-4.3085791654e-22
5.35162858309e-23
6.09217968166e-21
5.08790074811e-22
3.22453165711e-22
-4.39190251931e-21
7.65113099584e-22
3.98953766291e-24
1.7726879921e-21
-1.94408211334e-21
4.36486074609e-22
-1.16054037195e-21
3.28124437551e-22
2.77848329651e-22
2.24355383475e-22
-1.35473767539e-21
4.47781032373e-21
-6.48004134245e-21
3.00874179473e-23
-2.65475245261e-22
-7.33907482236e-21
1.02914664603e-22
1.25799817419e-21
-1.03430229618e-20
3.81341624746e-21
-3.4965285625e-21
1.0940425407e-22
-4.83474153299e-21
-2.70689193283e-24
1.44075970745e-21
0
-1.05967329836e-21
3.71065546292e-21
6.64334165577e-22
)
;

boundaryField
{
    back
    {
        type            wedge;
    }
    front
    {
        type            wedge;
    }
    top_channel
    {
        type            calculated;
        value           uniform 0;
    }
    wall_outer
    {
        type            calculated;
        value           uniform 0;
    }
    bottom_channel
    {
        type            calculated;
        value           uniform 0;
    }
    fluid_to_core
    {
        type            calculated;
        value           nonuniform List<scalar> 
56
(
-5.09541066082e-21
5.09541066054e-21
0
0
0
0
0
0
0
0
0
3.30444948778e-21
-6.60889897589e-21
0
0
2.35034787511e-21
-2.35034787511e-21
0
0
0
0
0
0
0
-4.73403401819e-21
0
0
0
0
0
0
0
0
0
0
0
0
0
0
0
0
0
0
0
0
0
-5.51651897931e-21
5.51651897931e-21
0
3.6675758051e-21
0
0
0
0
0
0
)
;
    }
    fluid_to_A2
    {
        type            calculated;
        value           nonuniform List<scalar> 
22
(
8.00095280275e-21
-4.00047640137e-21
0
0
-7.29097064277e-21
3.64548532139e-21
0
0
0
0
0
0
0
0
0
0
0
0
0
0
0
0
)
;
    }
    fluid_to_mb1
    {
        type            calculated;
        value           nonuniform List<scalar> 10(0 0 -5.71901831072e-21 -5.38931880722e-21 0 0 5.38931880722e-21 -6.51630772671e-21 6.51630772671e-21 5.71901831072e-21);
    }
    fluid_to_A3
    {
        type            calculated;
        value           nonuniform List<scalar> 
22
(
0
0
8.00095280275e-21
-4.00047640137e-21
0
0
0
0
0
0
0
0
0
0
0
0
0
0
0
0
3.64548532139e-21
-7.29097064277e-21
)
;
    }
    fluid_to_c1
    {
        type            calculated;
        value           nonuniform List<scalar> 
34
(
0
0
0
0
0
0
0
3.71752898991e-21
0
0
-4.1055539013e-21
-2.59436065663e-21
0
0
0
0
4.58402070961e-21
-4.58402070961e-21
0
6.79303347459e-21
0
-6.79303347459e-21
0
0
0
0
0
0
0
0
0
0
0
0
)
;
    }
}


// ************************************************************************* //
