/*--------------------------------*- C++ -*----------------------------------*\
| =========                 |                                                 |
| \\      /  F ield         | OpenFOAM: The Open Source CFD Toolbox           |
|  \\    /   O peration     | Version:  5.0                                   |
|   \\  /    A nd           | Web:      www.OpenFOAM.org                      |
|    \\/     M anipulation  |                                                 |
\*---------------------------------------------------------------------------*/
FoamFile
{
    version     2.0;
    format      ascii;
    class       volScalarField;
    location    "15000/c1";
    object      T;
}
// * * * * * * * * * * * * * * * * * * * * * * * * * * * * * * * * * * * * * //

dimensions      [0 0 0 1 0 0 0];

internalField   nonuniform List<scalar> 
132
(
320.497737723
324.221539544
319.578843027
324.982639226
316.457734364
320.630606027
315.206364564
322.078095068
324.870919986
327.400999133
324.324467679
327.749663428
319.865480402
317.160775181
314.92711664
321.685814091
313.541422393
320.910763075
319.001821461
315.684006596
324.881764945
326.92566364
324.111581579
327.415141371
322.871434389
324.63195352
321.522285742
325.555999516
317.409495663
318.918792805
321.018100204
314.203754569
320.075789201
322.055979402
318.160967632
323.532138097
317.406002758
318.383772861
320.602127857
313.763530735
316.205610722
321.030138486
328.681681113
328.761238761
328.284337437
329.132140709
319.487419459
318.582571978
327.296248411
327.658565643
316.315579433
321.586111179
327.890973482
327.016098531
323.008156824
323.042226258
323.698175817
322.852839243
319.365347109
319.362801904
321.248624677
324.558815511
324.431498955
321.996473369
312.363255362
315.512846634
318.116508515
309.511387932
328.357594265
329.338000854
328.057598748
329.479621728
320.510637468
317.476652167
318.511713546
309.711856821
315.903997684
313.404547538
326.530008013
328.223288698
323.304098095
326.201876401
327.191737275
327.719756633
322.405772594
320.736785408
324.547310196
325.18570822
322.827336311
320.198529971
320.784102356
318.991913104
321.497449273
317.944176104
319.676128379
320.978194225
317.338232927
322.74129219
318.559531979
323.063585522
317.848004327
315.825507704
320.081104142
312.399463771
320.898702045
321.230170181
325.85139528
324.445620423
325.578211577
324.754286041
323.563026567
321.134700259
322.018603367
321.513316461
326.678954285
323.520332078
328.081593071
327.602359564
326.469151169
324.787096708
324.119629421
328.080499902
320.06632625
327.93067673
323.687051939
323.662165679
320.846353943
323.62181299
327.471859257
326.719803799
326.404588204
319.03331901
)
;

boundaryField
{
    back
    {
        type            wedge;
    }
    front
    {
        type            wedge;
    }
    c1_to_A1
    {
        type            compressible::turbulentTemperatureCoupledBaffleMixed;
        refValue        nonuniform List<scalar> 
22
(
330.570847767
330.587788197
329.817119358
329.840604931
330.19484026
330.102129769
330.209249017
330.111336443
330.291026946
330.147284042
330.162518635
327.609248691
330.489411505
330.410935389
327.06586391
327.062663345
326.853381796
326.8722973
329.738930189
330.255334254
328.12341945
328.136825992
)
;
        refGradient     uniform 0;
        valueFraction   nonuniform List<scalar> 
22
(
0.993245070035
0.992784255664
0.992633734321
0.992625124448
0.995698420298
0.995690570849
0.463443526807
0.463443526807
0.435927458767
0.995134356979
0.994703807007
0.441179727066
0.995091084965
0.995275256989
0.514447855692
0.514447855692
0.634036621329
0.634036621329
0.5227805942
0.486463985114
0.997639179564
0.99763906304
)
;
        value           nonuniform List<scalar> 
22
(
330.563514851
330.578794968
329.804157796
329.829731748
330.182822747
330.091998026
328.740078518
328.765256945
329.044530366
330.138214119
330.154654296
325.322594274
330.482789943
330.403175557
325.421619267
325.395671062
325.65121689
325.693933441
328.875851518
329.138146339
328.114426211
328.129116802
)
;
        Tnbr            T;
        thicknessLayers 0();
        kappaLayers     0();
        kappaMethod     solidThermo;
        kappa           none;
        alphaAni        Anialpha;
    }
    c1_to_fluid
    {
        type            compressible::turbulentTemperatureRadCoupledMixed;
        refValue        nonuniform List<scalar> 
34
(
298.940043441
303.931420971
298.217557491
304.858002474
305.316802416
302.96008988
306.595635748
300.467146682
303.409373822
307.102946071
307.324901257
304.441457841
296.345228113
301.6810047
304.035718937
296.334273526
304.899042889
301.546870891
306.845248673
298.025739268
303.072219796
305.031972193
295.207457345
302.077326747
301.585090122
306.142998753
306.173219035
305.730786378
305.1863581
301.487395847
294.875101049
305.995443931
305.832702282
294.74986357
)
;
        refGradient     uniform 0;
        valueFraction   nonuniform List<scalar> 
34
(
0.112478880865
0.0972542267378
0.109924561276
0.0860404065156
0.0397692028134
0.0386740338261
0.0358997589166
0.0709561274229
0.0711869426339
0.0480434204977
0.044980842937
0.0563552474553
0.0629206260265
0.0599084975111
0.0490009882286
0.0622421799652
0.0292477815821
0.0440955569671
0.0300126163506
0.0585233589781
0.0362447206996
0.0332671541263
0.0685202626835
0.0600468450141
0.0746212672046
0.0518240202852
0.0512597195325
0.0499271980145
0.0557576580928
0.0654482887037
0.0768068704829
0.0526709159576
0.0534646294704
0.0612725133669
)
;
        value           nonuniform List<scalar> 
34
(
314.491731334
319.004790981
313.333694506
320.597131201
316.926528949
317.788108134
320.09977628
312.818741911
315.294209323
320.361533438
318.940925105
317.786668845
311.357935749
314.684827066
317.426759686
308.689283667
320.054374918
316.774780276
318.16184259
309.026231267
315.439390174
313.128027406
319.373789307
320.812740728
320.04201636
325.614282902
325.42861699
323.836153118
323.062962677
318.859441591
318.829183846
325.627605746
325.303914455
317.53770604
)
;
        Tnbr            T;
        qrNbr           none;
        qr              none;
        thicknessLayers 0();
        kappaLayers     0();
        kappaMethod     solidThermo;
        kappa           none;
        alphaAni        Anialpha;
    }
}


// ************************************************************************* //
