/*--------------------------------*- C++ -*----------------------------------*\
| =========                 |                                                 |
| \\      /  F ield         | OpenFOAM: The Open Source CFD Toolbox           |
|  \\    /   O peration     | Version:  5.0                                   |
|   \\  /    A nd           | Web:      www.OpenFOAM.org                      |
|    \\/     M anipulation  |                                                 |
\*---------------------------------------------------------------------------*/
FoamFile
{
    version     2.0;
    format      ascii;
    class       volVectorField;
    location    "0/A3";
    object      C;
}
// * * * * * * * * * * * * * * * * * * * * * * * * * * * * * * * * * * * * * //

dimensions      [0 1 0 0 0 0 0];

internalField   nonuniform List<vector> 
80
(
(0.01229841711 -0.0155535709058 -4.75796719229e-23)
(0.01229841711 -0.0244464290942 -5.46084870939e-23)
(0.0129715919481 -0.0160811527243 -5.93091244129e-21)
(0.0129715919481 -0.0239188472757 5.83268411915e-21)
(0.0180821213628 -0.0243987071091 -7.03662067666e-22)
(0.0180821213628 -0.0156012928909 7.03662067666e-22)
(0.0174036441266 -0.0238551289606 2.03722955832e-21)
(0.0174036441266 -0.0161448710394 -2.03722955832e-21)
(0.0156643462762 -0.023727644144 -2.41280876937e-21)
(0.0156451160481 -0.0162602306809 0)
(0.0146850726297 -0.0162374333599 1.02197790507e-22)
(0.0147049200659 -0.0237502216433 -6.78180810571e-22)
(0.0111430100212 -0.0244326200097 0)
(0.0111430100212 -0.0155673799903 0)
(0.0175230651328 -0.0205493912353 3.77107251862e-21)
(0.0157888882747 -0.0175010970118 1.13716749146e-20)
(0.0165832229934 -0.0178817767784 -1.14542964056e-21)
(0.0105653150575 -0.0162333769951 0)
(0.0105653150575 -0.0237666230049 0)
(0.0106304355279 -0.0199311267308 0)
(0.0162609106372 -0.0244533219616 3.63725843362e-21)
(0.0162609106372 -0.0155466780384 6.85794723182e-21)
(0.0166787015164 -0.0209628598939 -1.62435424735e-21)
(0.0159084177317 -0.0224763218996 -8.75885832117e-22)
(0.0197644022724 -0.02 0)
(0.0166584432983 -0.0221700662954 -5.1730928205e-22)
(0.0141471820829 -0.0155227933238 2.15705472314e-22)
(0.0141471820829 -0.0244772066762 2.40976754131e-22)
(0.0175453174989 -0.0193447874509 -5.00107378414e-21)
(0.0127180536339 -0.0190079642201 0)
(0.0119995124807 -0.0186226131994 -1.51193213084e-21)
(0.0124969374299 -0.021530385203 -7.36889262745e-21)
(0.0121684976275 -0.0207537046465 0)
(0.0110631361737 -0.0189983355203 6.08619910954e-21)
(0.0111294507809 -0.0208407042977 -2.44251477051e-21)
(0.0182805192617 -0.0211861545103 -2.42221569028e-21)
(0.0183023135828 -0.0188740651184 -9.6346316951e-23)
(0.0143854649803 -0.0226009512021 -9.58389331095e-23)
(0.0127555549333 -0.0170513708074 1.87939209471e-21)
(0.0127555556247 -0.02295686897 -4.597016228e-23)
(0.0175573283738 -0.0228269343118 1.06871876386e-22)
(0.0175795578297 -0.0172344034693 4.33747909239e-21)
(0.0136119367176 -0.0223714181314 -1.57330594691e-22)
(0.0192838109899 -0.0208907679302 4.37733930417e-21)
(0.0192838109899 -0.0191092320698 -4.80078979063e-21)
(0.0148862288798 -0.0189725304711 0)
(0.0141621217522 -0.0191741567394 -5.35466462074e-22)
(0.0166035252083 -0.0189216519717 0)
(0.0199261927067 -0.021889498577 0)
(0.0199261927067 -0.018110501423 0)
(0.0201099435453 -0.0159793493968 -3.42837332294e-21)
(0.0201099435453 -0.0240206506032 3.42837332294e-21)
(0.0158160642371 -0.020303035306 0)
(0.0193352837564 -0.0226261765175 0)
(0.0193352837564 -0.0173738234825 0)
(0.0150019752992 -0.0209088797499 -8.38485661193e-22)
(0.0104456481256 -0.0180634174178 -5.06532071441e-23)
(0.0105139514613 -0.021909896123 5.97371228623e-22)
(0.0151180254253 -0.0218717761124 -9.48991101388e-22)
(0.0138065712266 -0.0199995964147 -1.06889886346e-22)
(0.014066561449 -0.0207395741252 0)
(0.015715397802 -0.0194714365758 0)
(0.018333376362 -0.0222594872796 4.68701953095e-21)
(0.0183551398446 -0.0178010207865 0)
(0.0109993525366 -0.0172908499357 -4.90120404706e-23)
(0.0110658666957 -0.0226816830519 -5.59946150287e-23)
(0.0189395270532 -0.0159092360704 0)
(0.0189395270532 -0.0240907639296 0)
(0.019536485973 -0.0246874880985 -7.2919967658e-22)
(0.019536485973 -0.0153125119015 1.70607929123e-21)
(0.0143528452602 -0.0173235829865 5.24329775239e-22)
(0.012002173092 -0.0223938119876 -1.2853252457e-21)
(0.0119382965494 -0.0175881264475 1.16082377533e-22)
(0.0135990432405 -0.0175724225324 5.39448777731e-22)
(0.0195217518078 -0.0234232737179 0)
(0.0195217518078 -0.0165767262821 1.02725469171e-21)
(0.0149830866555 -0.018043884377 8.13815805217e-22)
(0.013407336518 -0.0214760955455 -8.3379987143e-21)
(0.0135051549925 -0.0184948677727 6.81896839781e-22)
(0.0128205291502 -0.019958563769 0)
)
;

boundaryField
{
    back
    {
        type            wedge;
    }
    front
    {
        type            wedge;
    }
    A3_to_fluid
    {
        type            calculated;
        value           nonuniform List<vector> 
22
(
(0.0126193901383 -0.015 -2.62923807259e-22)
(0.0126193901383 -0.025 -3.01764824244e-22)
(0.0178133874461 -0.025 -4.00047640137e-21)
(0.0178133874461 -0.015 4.00047640137e-21)
(0.0108892922381 -0.025 0)
(0.0108892922381 -0.015 0)
(0.00999961923064 -0.016 0)
(0.00999961923064 -0.024 0)
(0.00999961923064 -0.02 0)
(0.016081637522 -0.025 0)
(0.016081637522 -0.015 0)
(0.0203992232305 -0.02 0)
(0.0143502545991 -0.015 5.3054466774e-22)
(0.0143502545991 -0.025 5.98832595266e-22)
(0.0203992232305 -0.022 0)
(0.0203992232305 -0.018 0)
(0.0203992232305 -0.016 0)
(0.0203992232305 -0.024 0)
(0.00999961923064 -0.018 0)
(0.00999961923064 -0.022 0)
(0.0195454066715 -0.025 -3.64548532139e-21)
(0.0195454066715 -0.015 3.64548532139e-21)
)
;
    }
}


// ************************************************************************* //
