/*--------------------------------*- C++ -*----------------------------------*\
| =========                 |                                                 |
| \\      /  F ield         | OpenFOAM: The Open Source CFD Toolbox           |
|  \\    /   O peration     | Version:  5.0                                   |
|   \\  /    A nd           | Web:      www.OpenFOAM.org                      |
|    \\/     M anipulation  |                                                 |
\*---------------------------------------------------------------------------*/
FoamFile
{
    version     2.0;
    format      ascii;
    class       volScalarField;
    location    "0/A3";
    object      Cx;
}
// * * * * * * * * * * * * * * * * * * * * * * * * * * * * * * * * * * * * * //

dimensions      [0 1 0 0 0 0 0];

internalField   nonuniform List<scalar> 
80
(
0.01229841711
0.01229841711
0.0129715919481
0.0129715919481
0.0180821213628
0.0180821213628
0.0174036441266
0.0174036441266
0.0156643462762
0.0156451160481
0.0146850726297
0.0147049200659
0.0111430100212
0.0111430100212
0.0175230651328
0.0157888882747
0.0165832229934
0.0105653150575
0.0105653150575
0.0106304355279
0.0162609106372
0.0162609106372
0.0166787015164
0.0159084177317
0.0197644022724
0.0166584432983
0.0141471820829
0.0141471820829
0.0175453174989
0.0127180536339
0.0119995124807
0.0124969374299
0.0121684976275
0.0110631361737
0.0111294507809
0.0182805192617
0.0183023135828
0.0143854649803
0.0127555549333
0.0127555556247
0.0175573283738
0.0175795578297
0.0136119367176
0.0192838109899
0.0192838109899
0.0148862288798
0.0141621217522
0.0166035252083
0.0199261927067
0.0199261927067
0.0201099435453
0.0201099435453
0.0158160642371
0.0193352837564
0.0193352837564
0.0150019752992
0.0104456481256
0.0105139514613
0.0151180254253
0.0138065712266
0.014066561449
0.015715397802
0.018333376362
0.0183551398446
0.0109993525366
0.0110658666957
0.0189395270532
0.0189395270532
0.019536485973
0.019536485973
0.0143528452602
0.012002173092
0.0119382965494
0.0135990432405
0.0195217518078
0.0195217518078
0.0149830866555
0.013407336518
0.0135051549925
0.0128205291502
)
;

boundaryField
{
    back
    {
        type            wedge;
    }
    front
    {
        type            wedge;
    }
    A3_to_fluid
    {
        type            calculated;
        value           nonuniform List<scalar> 
22
(
0.0126193901383
0.0126193901383
0.0178133874461
0.0178133874461
0.0108892922381
0.0108892922381
0.00999961923064
0.00999961923064
0.00999961923064
0.016081637522
0.016081637522
0.0203992232305
0.0143502545991
0.0143502545991
0.0203992232305
0.0203992232305
0.0203992232305
0.0203992232305
0.00999961923064
0.00999961923064
0.0195454066715
0.0195454066715
)
;
    }
}


// ************************************************************************* //
