/*--------------------------------*- C++ -*----------------------------------*\
| =========                 |                                                 |
| \\      /  F ield         | OpenFOAM: The Open Source CFD Toolbox           |
|  \\    /   O peration     | Version:  5.0                                   |
|   \\  /    A nd           | Web:      www.OpenFOAM.org                      |
|    \\/     M anipulation  |                                                 |
\*---------------------------------------------------------------------------*/
FoamFile
{
    version     2.0;
    format      ascii;
    class       volScalarField;
    location    "0/A3";
    object      Cy;
}
// * * * * * * * * * * * * * * * * * * * * * * * * * * * * * * * * * * * * * //

dimensions      [0 1 0 0 0 0 0];

internalField   nonuniform List<scalar> 
80
(
-0.0155535709058
-0.0244464290942
-0.0160811527243
-0.0239188472757
-0.0243987071091
-0.0156012928909
-0.0238551289606
-0.0161448710394
-0.023727644144
-0.0162602306809
-0.0162374333599
-0.0237502216433
-0.0244326200097
-0.0155673799903
-0.0205493912353
-0.0175010970118
-0.0178817767784
-0.0162333769951
-0.0237666230049
-0.0199311267308
-0.0244533219616
-0.0155466780384
-0.0209628598939
-0.0224763218996
-0.02
-0.0221700662954
-0.0155227933238
-0.0244772066762
-0.0193447874509
-0.0190079642201
-0.0186226131994
-0.021530385203
-0.0207537046465
-0.0189983355203
-0.0208407042977
-0.0211861545103
-0.0188740651184
-0.0226009512021
-0.0170513708074
-0.02295686897
-0.0228269343118
-0.0172344034693
-0.0223714181314
-0.0208907679302
-0.0191092320698
-0.0189725304711
-0.0191741567394
-0.0189216519717
-0.021889498577
-0.018110501423
-0.0159793493968
-0.0240206506032
-0.020303035306
-0.0226261765175
-0.0173738234825
-0.0209088797499
-0.0180634174178
-0.021909896123
-0.0218717761124
-0.0199995964147
-0.0207395741252
-0.0194714365758
-0.0222594872796
-0.0178010207865
-0.0172908499357
-0.0226816830519
-0.0159092360704
-0.0240907639296
-0.0246874880985
-0.0153125119015
-0.0173235829865
-0.0223938119876
-0.0175881264475
-0.0175724225324
-0.0234232737179
-0.0165767262821
-0.018043884377
-0.0214760955455
-0.0184948677727
-0.019958563769
)
;

boundaryField
{
    back
    {
        type            wedge;
    }
    front
    {
        type            wedge;
    }
    A3_to_fluid
    {
        type            calculated;
        value           nonuniform List<scalar> 
22
(
-0.015
-0.025
-0.025
-0.015
-0.025
-0.015
-0.016
-0.024
-0.02
-0.025
-0.015
-0.02
-0.015
-0.025
-0.022
-0.018
-0.016
-0.024
-0.018
-0.022
-0.025
-0.015
)
;
    }
}


// ************************************************************************* //
