/*--------------------------------*- C++ -*----------------------------------*\
| =========                 |                                                 |
| \\      /  F ield         | OpenFOAM: The Open Source CFD Toolbox           |
|  \\    /   O peration     | Version:  5.0                                   |
|   \\  /    A nd           | Web:      www.OpenFOAM.org                      |
|    \\/     M anipulation  |                                                 |
\*---------------------------------------------------------------------------*/
FoamFile
{
    version     2.0;
    format      ascii;
    class       volScalarField;
    location    "0/A3";
    object      Cz;
}
// * * * * * * * * * * * * * * * * * * * * * * * * * * * * * * * * * * * * * //

dimensions      [0 1 0 0 0 0 0];

internalField   nonuniform List<scalar> 
80
(
-4.75796719229e-23
-5.46084870939e-23
-5.93091244129e-21
5.83268411915e-21
-7.03662067666e-22
7.03662067666e-22
2.03722955832e-21
-2.03722955832e-21
-2.41280876937e-21
0
1.02197790507e-22
-6.78180810571e-22
0
0
3.77107251862e-21
1.13716749146e-20
-1.14542964056e-21
0
0
0
3.63725843362e-21
6.85794723182e-21
-1.62435424735e-21
-8.75885832117e-22
0
-5.1730928205e-22
2.15705472314e-22
2.40976754131e-22
-5.00107378414e-21
0
-1.51193213084e-21
-7.36889262745e-21
0
6.08619910954e-21
-2.44251477051e-21
-2.42221569028e-21
-9.6346316951e-23
-9.58389331095e-23
1.87939209471e-21
-4.597016228e-23
1.06871876386e-22
4.33747909239e-21
-1.57330594691e-22
4.37733930417e-21
-4.80078979063e-21
0
-5.35466462074e-22
0
0
0
-3.42837332294e-21
3.42837332294e-21
0
0
0
-8.38485661193e-22
-5.06532071441e-23
5.97371228623e-22
-9.48991101388e-22
-1.06889886346e-22
0
0
4.68701953095e-21
0
-4.90120404706e-23
-5.59946150287e-23
0
0
-7.2919967658e-22
1.70607929123e-21
5.24329775239e-22
-1.2853252457e-21
1.16082377533e-22
5.39448777731e-22
0
1.02725469171e-21
8.13815805217e-22
-8.3379987143e-21
6.81896839781e-22
0
)
;

boundaryField
{
    back
    {
        type            wedge;
    }
    front
    {
        type            wedge;
    }
    A3_to_fluid
    {
        type            calculated;
        value           nonuniform List<scalar> 
22
(
-2.62923807259e-22
-3.01764824244e-22
-4.00047640137e-21
4.00047640137e-21
0
0
0
0
0
0
0
0
5.3054466774e-22
5.98832595266e-22
0
0
0
0
0
0
-3.64548532139e-21
3.64548532139e-21
)
;
    }
}


// ************************************************************************* //
