/*--------------------------------*- C++ -*----------------------------------*\
| =========                 |                                                 |
| \\      /  F ield         | OpenFOAM: The Open Source CFD Toolbox           |
|  \\    /   O peration     | Version:  5.0                                   |
|   \\  /    A nd           | Web:      www.OpenFOAM.org                      |
|    \\/     M anipulation  |                                                 |
\*---------------------------------------------------------------------------*/
FoamFile
{
    version     2.0;
    format      ascii;
    class       volScalarField;
    location    "0/mb1";
    object      Cx;
}
// * * * * * * * * * * * * * * * * * * * * * * * * * * * * * * * * * * * * * //

dimensions      [0 1 0 0 0 0 0];

internalField   nonuniform List<scalar> 
16
(
0.0286579065763
0.0228447616571
0.0241997430223
0.0241997430223
0.0265656305805
0.0281182132333
0.0249409623602
0.0257532922122
0.0249409623602
0.0281182132333
0.0233886481866
0.0257532922122
0.0273047887996
0.0233886481866
0.0265656305805
0.0273047887996
)
;

boundaryField
{
    back
    {
        type            wedge;
    }
    front
    {
        type            wedge;
    }
    mb1_to_fluid
    {
        type            calculated;
        value           nonuniform List<scalar> 10(0.0289988957689 0.0224991432689 0.0265697725797 0.0281942331349 0.0249453742641 0.0249453742641 0.0281942331349 0.0233210512034 0.0233210512034 0.0265697725797);
    }
}


// ************************************************************************* //
