/*--------------------------------*- C++ -*----------------------------------*\
| =========                 |                                                 |
| \\      /  F ield         | OpenFOAM: The Open Source CFD Toolbox           |
|  \\    /   O peration     | Version:  5.0                                   |
|   \\  /    A nd           | Web:      www.OpenFOAM.org                      |
|    \\/     M anipulation  |                                                 |
\*---------------------------------------------------------------------------*/
FoamFile
{
    version     2.0;
    format      ascii;
    class       volScalarField;
    location    "0/mb1";
    object      Cy;
}
// * * * * * * * * * * * * * * * * * * * * * * * * * * * * * * * * * * * * * //

dimensions      [0 1 0 0 0 0 0];

internalField   nonuniform List<scalar> 
16
(
5.92912478348e-17
1.18350685232e-16
-0.00033308460567
0.000333084605672
-0.000666666666666
-0.000667094798202
-0.000666666666666
-0.000333333333332
0.000666666666667
0.000667094798202
0.000666151927303
0.000333333333335
0.000333553769458
-0.000666151927303
0.000666666666667
-0.000333553769457
)
;

boundaryField
{
    back
    {
        type            wedge;
    }
    front
    {
        type            wedge;
    }
    mb1_to_fluid
    {
        type            calculated;
        value           nonuniform List<scalar> 10(0 0 -0.001 -0.001 -0.001 0.001 0.001 0.001 -0.001 0.001);
    }
}


// ************************************************************************* //
