/*--------------------------------*- C++ -*----------------------------------*\
| =========                 |                                                 |
| \\      /  F ield         | OpenFOAM: The Open Source CFD Toolbox           |
|  \\    /   O peration     | Version:  5.0                                   |
|   \\  /    A nd           | Web:      www.OpenFOAM.org                      |
|    \\/     M anipulation  |                                                 |
\*---------------------------------------------------------------------------*/
FoamFile
{
    version     2.0;
    format      ascii;
    class       volScalarField;
    location    "0/mb1";
    object      Cz;
}
// * * * * * * * * * * * * * * * * * * * * * * * * * * * * * * * * * * * * * //

dimensions      [0 1 0 0 0 0 0];

internalField   nonuniform List<scalar> 
16
(
0
0
0
1.28728308431e-21
1.01676194142e-21
1.24026418441e-21
0
0
-1.45920932525e-21
-8.12643156033e-22
-1.63663258616e-20
0
0
1.31960674176e-20
5.87447795206e-21
-1.28472569666e-21
)
;

boundaryField
{
    back
    {
        type            wedge;
    }
    front
    {
        type            wedge;
    }
    mb1_to_fluid
    {
        type            calculated;
        value           nonuniform List<scalar> 10(0 0 5.71901831072e-21 6.55125018202e-21 0 0 -4.29249565601e-21 7.06131552119e-21 -5.93193825818e-21 -5.71901831072e-21);
    }
}


// ************************************************************************* //
