/*--------------------------------*- C++ -*----------------------------------*\
| =========                 |                                                 |
| \\      /  F ield         | OpenFOAM: The Open Source CFD Toolbox           |
|  \\    /   O peration     | Version:  5.0                                   |
|   \\  /    A nd           | Web:      www.OpenFOAM.org                      |
|    \\/     M anipulation  |                                                 |
\*---------------------------------------------------------------------------*/
FoamFile
{
    version     2.0;
    format      ascii;
    class       volScalarField;
    location    "15000/A1";
    object      T;
}
// * * * * * * * * * * * * * * * * * * * * * * * * * * * * * * * * * * * * * //

dimensions      [0 0 0 1 0 0 0];

internalField   nonuniform List<scalar> 
80
(
330.570847767
330.587788197
330.581965795
330.601462266
329.817119358
329.840604931
329.84709047
329.869545126
330.229901612
330.203584523
330.425326348
330.419169786
330.19484026
330.102129769
329.87876827
330.198815954
330.065506803
330.209249017
330.111336443
330.291026946
330.147284042
330.162518635
330.030067239
330.183960656
327.609248691
330.059277003
330.489411505
330.410935389
329.875881445
330.600459288
330.554262037
330.583625903
330.585975145
330.298847965
330.289421346
329.742958532
329.758392378
330.470620624
330.583869215
330.609479874
329.867929079
329.851252885
330.595282727
328.598176058
328.608053251
330.358106332
330.514314053
330.079070412
327.06586391
327.062663345
326.853381796
326.8722973
330.235312368
328.38063378
328.392484852
330.321401518
329.738930189
330.255334254
330.32459947
330.55049342
330.514374336
330.22546605
329.777297687
329.779501732
330.256179956
330.237435979
328.847108304
328.828804844
328.12341945
328.136825992
330.490756654
330.513339242
330.571583445
330.591016643
328.111145568
328.12287358
330.344545662
330.591154684
330.59224551
330.59700925
)
;

boundaryField
{
    back
    {
        type            wedge;
    }
    front
    {
        type            wedge;
    }
    A1_to_c1
    {
        type            compressible::turbulentTemperatureCoupledBaffleMixed;
        refValue        nonuniform List<scalar> 
22
(
329.485282783
329.341453998
328.057535508
328.366250176
327.401096181
327.751065935
327.471102014
327.602598658
328.081210851
328.283209068
328.677614324
323.517316941
329.140526456
328.768553619
323.679523921
323.62947434
323.568449543
323.652401738
327.930372823
328.079853115
324.314049214
324.871516723
)
;
        refGradient     uniform 0;
        valueFraction   nonuniform List<scalar> 
22
(
0.00675492996481
0.00721574433553
0.0073662656787
0.00737487555179
0.00430157970204
0.00430942915063
0.536556473193
0.536556473193
0.564072541233
0.00486564302121
0.00529619299271
0.558820272934
0.00490891503543
0.00472474301148
0.485552144308
0.485552144308
0.365963378671
0.365963378671
0.4772194058
0.513536014886
0.00236082043607
0.00236093696015
)
;
        value           nonuniform List<scalar> 
22
(
330.57003776
330.582416916
329.806153507
329.842094442
330.182344967
330.092384292
328.739824187
328.765436781
329.044459956
330.135437542
330.144634622
325.321381403
330.495530003
330.414077473
325.423504824
325.394060282
325.648963526
325.686992526
328.875667364
329.13789117
328.097991947
328.124760948
)
;
        Tnbr            T;
        thicknessLayers 0();
        kappaLayers     0();
        kappaMethod     directionalSolidThermo;
        kappa           none;
        alphaAni        Anialpha;
    }
}


// ************************************************************************* //
