/*--------------------------------*- C++ -*----------------------------------*\
| =========                 |                                                 |
| \\      /  F ield         | OpenFOAM: The Open Source CFD Toolbox           |
|  \\    /   O peration     | Version:  5.0                                   |
|   \\  /    A nd           | Web:      www.OpenFOAM.org                      |
|    \\/     M anipulation  |                                                 |
\*---------------------------------------------------------------------------*/
FoamFile
{
    version     2.0;
    format      ascii;
    class       volVectorField;
    location    "0/A2";
    object      C;
}
// * * * * * * * * * * * * * * * * * * * * * * * * * * * * * * * * * * * * * //

dimensions      [0 1 0 0 0 0 0];

internalField   nonuniform List<vector> 
80
(
(0.0181243177221 0.0155656494365 1.87679011364e-21)
(0.0181243177221 0.0244343505635 7.02513974014e-22)
(0.0174590830668 0.0161160394477 3.90668711046e-21)
(0.0174561696775 0.023908295337 -1.07152026967e-22)
(0.0123389178102 0.0244098557611 -6.65568257259e-21)
(0.0123389178102 0.0155901442389 -3.20565993672e-21)
(0.013021067401 0.0238657224221 0)
(0.0130523525325 0.0161803700038 2.50123948585e-21)
(0.0147493701276 0.0237331272013 0)
(0.0147984342934 0.0163136057485 0)
(0.0157304583484 0.0162822634827 7.27981032417e-21)
(0.015708323689 0.0237448330761 -2.38912576189e-21)
(0.0192784569322 0.0244430496856 5.81417359786e-21)
(0.0192784569322 0.0155569503144 -1.31494612987e-21)
(0.0128937536474 0.0205495400953 0)
(0.0146152128602 0.0174840610062 -9.53346496303e-23)
(0.0138299411768 0.0178538369885 7.2705841463e-22)
(0.0198555864589 0.0162242765637 3.57031716184e-21)
(0.0198555864589 0.0237757234363 -3.78193167011e-21)
(0.0197951539149 0.0199342239639 0)
(0.0141567716072 0.0244600089823 -4.26921908361e-22)
(0.0141867725044 0.0155854096437 9.2365664674e-21)
(0.0137319602246 0.0209576953593 4.19336481259e-21)
(0.0145018830127 0.0224729257667 -5.86311264185e-22)
(0.0106645451663 0.02 0)
(0.0137522268262 0.0221652400344 2.43383643353e-21)
(0.0162737648305 0.015554397694 7.25142289846e-25)
(0.0162707474723 0.0244703911892 -1.42637803585e-21)
(0.0128747504053 0.0193459110496 -3.5294478158e-21)
(0.017721913674 0.0190730837421 0)
(0.0184384052425 0.0186865843575 2.75164042637e-21)
(0.0179138248371 0.0215293441523 0)
(0.0182417654216 0.020759199205 -6.30409874508e-22)
(0.0193564892196 0.0189934955748 -1.25902895432e-21)
(0.0192911381317 0.0208470143748 -1.24119341205e-21)
(0.0121329299683 0.0211921126431 1.87449156172e-21)
(0.0121133265155 0.0188754495447 -4.2908195504e-21)
(0.0160198704496 0.0226063640038 6.781522003e-21)
(0.0176974596954 0.0171350133332 5.95444519803e-22)
(0.0176680407637 0.0229486028064 -1.06515855991e-22)
(0.0128767613788 0.0172851504651 -4.99607796017e-22)
(0.0128642774703 0.022826390527 -1.67024893938e-21)
(0.0167944630891 0.0223678037825 -6.0396224452e-21)
(0.0111389025155 0.0208836259464 -3.38721844751e-21)
(0.0111389025155 0.0191163740536 3.38721844751e-21)
(0.0154776161761 0.0189171439251 0)
(0.0162363025912 0.0191975225731 4.20550265293e-21)
(0.0137793261564 0.0188475848041 -5.36960866385e-23)
(0.0104893419237 0.0218855992336 6.96209426043e-22)
(0.0104893419237 0.0181144007664 -6.96209426043e-22)
(0.010295135634 0.0159789041807 -1.67469358833e-21)
(0.010295135634 0.0240210958193 1.67469358833e-21)
(0.0145977277458 0.0203162993635 2.34246773376e-21)
(0.0110846443059 0.0226221644739 0)
(0.0110846443059 0.0173778355261 0)
(0.015404250571 0.0209246715794 3.12461304917e-21)
(0.0199671193015 0.018061437534 0)
(0.0199027570996 0.0219124327616 4.01580508686e-21)
(0.0152917944014 0.0218773277481 0)
(0.0166003074304 0.0200183162611 -9.96391070315e-21)
(0.016334916743 0.0207620962256 3.38052602232e-21)
(0.0146614687732 0.0194050300245 -7.15237205743e-22)
(0.0120809639832 0.022256812268 1.09213894499e-22)
(0.0120613172637 0.0178104158854 1.32676065128e-21)
(0.0194175866475 0.0172888179684 5.11833216393e-21)
(0.0193523357672 0.0226855340728 -1.12103917392e-22)
(0.0114653762506 0.0159094175419 -1.08680204806e-20)
(0.0114653762506 0.0240905824581 1.24292363686e-20)
(0.0108802833256 0.0246874318576 -4.5028904347e-22)
(0.0108802833256 0.0153125681424 4.5028904347e-22)
(0.016052865041 0.017373423192 9.58827787853e-23)
(0.0185009946161 0.0176449290685 7.83763085037e-21)
(0.0184081382319 0.022387414731 -8.18181665614e-21)
(0.0168354598312 0.017670350177 0)
(0.0108959551892 0.0234253827946 1.00889271553e-21)
(0.0108959551892 0.0165746172054 -7.80354883366e-22)
(0.015384697794 0.0179884691399 -3.36928997737e-22)
(0.0169954763303 0.0214736252158 6.8330227472e-21)
(0.0169259682058 0.0185658998262 -1.12748989323e-21)
(0.0175899214516 0.0199606647393 -9.17928491043e-21)
)
;

boundaryField
{
    back
    {
        type            wedge;
    }
    front
    {
        type            wedge;
    }
    A2_to_fluid
    {
        type            calculated;
        value           nonuniform List<vector> 
22
(
(0.0178133874461 0.015 -4.00047640137e-21)
(0.0178133874461 0.025 4.00047640137e-21)
(0.0126193901383 0.025 -2.62923807259e-22)
(0.0126193901383 0.015 -3.01764824244e-22)
(0.0195454066715 0.025 3.64548532139e-21)
(0.0195454066715 0.015 -3.64548532139e-21)
(0.0203992232305 0.016 0)
(0.0203992232305 0.024 0)
(0.0203992232305 0.02 0)
(0.0143502545991 0.025 5.3054466774e-22)
(0.0143502545991 0.015 5.98832595266e-22)
(0.00999961923064 0.02 0)
(0.016081637522 0.015 0)
(0.016081637522 0.025 0)
(0.00999961923064 0.022 0)
(0.00999961923064 0.018 0)
(0.00999961923064 0.016 0)
(0.00999961923064 0.024 0)
(0.0203992232305 0.018 0)
(0.0203992232305 0.022 0)
(0.0108892922381 0.025 0)
(0.0108892922381 0.015 0)
)
;
    }
}


// ************************************************************************* //
