/*--------------------------------*- C++ -*----------------------------------*\
| =========                 |                                                 |
| \\      /  F ield         | OpenFOAM: The Open Source CFD Toolbox           |
|  \\    /   O peration     | Version:  5.0                                   |
|   \\  /    A nd           | Web:      www.OpenFOAM.org                      |
|    \\/     M anipulation  |                                                 |
\*---------------------------------------------------------------------------*/
FoamFile
{
    version     2.0;
    format      ascii;
    class       volScalarField;
    location    "0/A2";
    object      Cx;
}
// * * * * * * * * * * * * * * * * * * * * * * * * * * * * * * * * * * * * * //

dimensions      [0 1 0 0 0 0 0];

internalField   nonuniform List<scalar> 
80
(
0.0181243177221
0.0181243177221
0.0174590830668
0.0174561696775
0.0123389178102
0.0123389178102
0.013021067401
0.0130523525325
0.0147493701276
0.0147984342934
0.0157304583484
0.015708323689
0.0192784569322
0.0192784569322
0.0128937536474
0.0146152128602
0.0138299411768
0.0198555864589
0.0198555864589
0.0197951539149
0.0141567716072
0.0141867725044
0.0137319602246
0.0145018830127
0.0106645451663
0.0137522268262
0.0162737648305
0.0162707474723
0.0128747504053
0.017721913674
0.0184384052425
0.0179138248371
0.0182417654216
0.0193564892196
0.0192911381317
0.0121329299683
0.0121133265155
0.0160198704496
0.0176974596954
0.0176680407637
0.0128767613788
0.0128642774703
0.0167944630891
0.0111389025155
0.0111389025155
0.0154776161761
0.0162363025912
0.0137793261564
0.0104893419237
0.0104893419237
0.010295135634
0.010295135634
0.0145977277458
0.0110846443059
0.0110846443059
0.015404250571
0.0199671193015
0.0199027570996
0.0152917944014
0.0166003074304
0.016334916743
0.0146614687732
0.0120809639832
0.0120613172637
0.0194175866475
0.0193523357672
0.0114653762506
0.0114653762506
0.0108802833256
0.0108802833256
0.016052865041
0.0185009946161
0.0184081382319
0.0168354598312
0.0108959551892
0.0108959551892
0.015384697794
0.0169954763303
0.0169259682058
0.0175899214516
)
;

boundaryField
{
    back
    {
        type            wedge;
    }
    front
    {
        type            wedge;
    }
    A2_to_fluid
    {
        type            calculated;
        value           nonuniform List<scalar> 
22
(
0.0178133874461
0.0178133874461
0.0126193901383
0.0126193901383
0.0195454066715
0.0195454066715
0.0203992232305
0.0203992232305
0.0203992232305
0.0143502545991
0.0143502545991
0.00999961923064
0.016081637522
0.016081637522
0.00999961923064
0.00999961923064
0.00999961923064
0.00999961923064
0.0203992232305
0.0203992232305
0.0108892922381
0.0108892922381
)
;
    }
}


// ************************************************************************* //
