/*--------------------------------*- C++ -*----------------------------------*\
| =========                 |                                                 |
| \\      /  F ield         | OpenFOAM: The Open Source CFD Toolbox           |
|  \\    /   O peration     | Version:  5.0                                   |
|   \\  /    A nd           | Web:      www.OpenFOAM.org                      |
|    \\/     M anipulation  |                                                 |
\*---------------------------------------------------------------------------*/
FoamFile
{
    version     2.0;
    format      ascii;
    class       volScalarField;
    location    "0/A2";
    object      Cy;
}
// * * * * * * * * * * * * * * * * * * * * * * * * * * * * * * * * * * * * * //

dimensions      [0 1 0 0 0 0 0];

internalField   nonuniform List<scalar> 
80
(
0.0155656494365
0.0244343505635
0.0161160394477
0.023908295337
0.0244098557611
0.0155901442389
0.0238657224221
0.0161803700038
0.0237331272013
0.0163136057485
0.0162822634827
0.0237448330761
0.0244430496856
0.0155569503144
0.0205495400953
0.0174840610062
0.0178538369885
0.0162242765637
0.0237757234363
0.0199342239639
0.0244600089823
0.0155854096437
0.0209576953593
0.0224729257667
0.02
0.0221652400344
0.015554397694
0.0244703911892
0.0193459110496
0.0190730837421
0.0186865843575
0.0215293441523
0.020759199205
0.0189934955748
0.0208470143748
0.0211921126431
0.0188754495447
0.0226063640038
0.0171350133332
0.0229486028064
0.0172851504651
0.022826390527
0.0223678037825
0.0208836259464
0.0191163740536
0.0189171439251
0.0191975225731
0.0188475848041
0.0218855992336
0.0181144007664
0.0159789041807
0.0240210958193
0.0203162993635
0.0226221644739
0.0173778355261
0.0209246715794
0.018061437534
0.0219124327616
0.0218773277481
0.0200183162611
0.0207620962256
0.0194050300245
0.022256812268
0.0178104158854
0.0172888179684
0.0226855340728
0.0159094175419
0.0240905824581
0.0246874318576
0.0153125681424
0.017373423192
0.0176449290685
0.022387414731
0.017670350177
0.0234253827946
0.0165746172054
0.0179884691399
0.0214736252158
0.0185658998262
0.0199606647393
)
;

boundaryField
{
    back
    {
        type            wedge;
    }
    front
    {
        type            wedge;
    }
    A2_to_fluid
    {
        type            calculated;
        value           nonuniform List<scalar> 
22
(
0.015
0.025
0.025
0.015
0.025
0.015
0.016
0.024
0.02
0.025
0.015
0.02
0.015
0.025
0.022
0.018
0.016
0.024
0.018
0.022
0.025
0.015
)
;
    }
}


// ************************************************************************* //
