/*--------------------------------*- C++ -*----------------------------------*\
| =========                 |                                                 |
| \\      /  F ield         | OpenFOAM: The Open Source CFD Toolbox           |
|  \\    /   O peration     | Version:  5.0                                   |
|   \\  /    A nd           | Web:      www.OpenFOAM.org                      |
|    \\/     M anipulation  |                                                 |
\*---------------------------------------------------------------------------*/
FoamFile
{
    version     2.0;
    format      ascii;
    class       volScalarField;
    location    "0/A2";
    object      Cz;
}
// * * * * * * * * * * * * * * * * * * * * * * * * * * * * * * * * * * * * * //

dimensions      [0 1 0 0 0 0 0];

internalField   nonuniform List<scalar> 
80
(
1.87679011364e-21
7.02513974014e-22
3.90668711046e-21
-1.07152026967e-22
-6.65568257259e-21
-3.20565993672e-21
0
2.50123948585e-21
0
0
7.27981032417e-21
-2.38912576189e-21
5.81417359786e-21
-1.31494612987e-21
0
-9.53346496303e-23
7.2705841463e-22
3.57031716184e-21
-3.78193167011e-21
0
-4.26921908361e-22
9.2365664674e-21
4.19336481259e-21
-5.86311264185e-22
0
2.43383643353e-21
7.25142289846e-25
-1.42637803585e-21
-3.5294478158e-21
0
2.75164042637e-21
0
-6.30409874508e-22
-1.25902895432e-21
-1.24119341205e-21
1.87449156172e-21
-4.2908195504e-21
6.781522003e-21
5.95444519803e-22
-1.06515855991e-22
-4.99607796017e-22
-1.67024893938e-21
-6.0396224452e-21
-3.38721844751e-21
3.38721844751e-21
0
4.20550265293e-21
-5.36960866385e-23
6.96209426043e-22
-6.96209426043e-22
-1.67469358833e-21
1.67469358833e-21
2.34246773376e-21
0
0
3.12461304917e-21
0
4.01580508686e-21
0
-9.96391070315e-21
3.38052602232e-21
-7.15237205743e-22
1.09213894499e-22
1.32676065128e-21
5.11833216393e-21
-1.12103917392e-22
-1.08680204806e-20
1.24292363686e-20
-4.5028904347e-22
4.5028904347e-22
9.58827787853e-23
7.83763085037e-21
-8.18181665614e-21
0
1.00889271553e-21
-7.80354883366e-22
-3.36928997737e-22
6.8330227472e-21
-1.12748989323e-21
-9.17928491043e-21
)
;

boundaryField
{
    back
    {
        type            wedge;
    }
    front
    {
        type            wedge;
    }
    A2_to_fluid
    {
        type            calculated;
        value           nonuniform List<scalar> 
22
(
-4.00047640137e-21
4.00047640137e-21
-2.62923807259e-22
-3.01764824244e-22
3.64548532139e-21
-3.64548532139e-21
0
0
0
5.3054466774e-22
5.98832595266e-22
0
0
0
0
0
0
0
0
0
0
0
)
;
    }
}


// ************************************************************************* //
